
 Working directory              : /tmp/trushin/molpro.pqOPpNUX7N/
 Global scratch directory       : /tmp/trushin/molpro.pqOPpNUX7N/
 Wavefunction directory         : /home/trushin/wfu/
 Main file repository           : /tmp/trushin/molpro.pqOPpNUX7N/

 id        : chemie

 Nodes         nprocs
 trushin-laptop    1
 GA implementation: MPI file
 GA implementation (serial work in mppx): MPI file

 Using customized tuning parameters: mindgm=1; mindgv=20; mindgc=4; mindgr=1; noblas=0; minvec=7
 default implementation of scratch files=df  


 Variables initialized (1042), CPU time= 0.00 sec
 basis={
 default,aug-cc-pwCVQZ                                                           ! orbital basis
 set,oep;default,aug-cc-pVDZ/mp2fit                                              ! OEP basis
 }
 
 symmetry,nosym                                                                  ! KSINV does not use symmetry
 
 angstrom
 geometry={
 1
 Li        0.000000    0.000000    0.000000
 }
 
 hf,maxit=0                                                                      ! HF calculations
 
 {matrop;read,den,type=density,file=dm.dat;save,den,1325.1}                      ! read stored density matrix
 
 acfd;ksinv,refden=1325.1,e_ref=-7.475872692580,thr_fai_oep=1.7d-2,noa=2,nob=1   ! KSINV calculation
 Commands initialized (846), CPU time= 0.01 sec, 718 directives.
 Default parameters read. Elapsed time= 0.05 sec

 Checking input...
 Passed
1


                                         ***  PROGRAM SYSTEM MOLPRO  ***
                                       Copyright, TTI GmbH Stuttgart, 2015
                                    Version 2023.3 linked Thu Oct 26 19:03:38 2023


 **********************************************************************************************************************************
 LABEL *                                                                                                                                                                 
  (16 PROC) 64 bit serial version                                                        DATE: 27-Oct-23          TIME: 01:08:16  
 **********************************************************************************************************************************

 SHA1:             060ce6a842e4a9d83ae7df5754a21387cd620913
 **********************************************************************************************************************************

 Memory per process:        32 MW
 Total memory per node:     32 MW

 GA preallocation disabled
 GA check disabled

 Variable memory set to 32.0 MW

 SETTING BASIS          =    AUG-CC-PWCVQZ
 ZSYMEL=NOSYM
 ZUNIT=ANG


 Geometry recognized as XYZ



 Recomputing integrals since basis changed


 Using spherical harmonics

 Library entry LI     S aug-cc-pwCVQZ        selected for orbital group  1
 Library entry LI     P aug-cc-pwCVQZ        selected for orbital group  1
 Library entry LI     D aug-cc-pwCVQZ        selected for orbital group  1
 Library entry LI     F aug-cc-pwCVQZ        selected for orbital group  1
 Library entry LI     G aug-cc-pwCVQZ        selected for orbital group  1


 PROGRAM * SEWARD (Integral evaluation for generally contracted gaussian basis sets)     Author: Roland Lindh, 1990

 Geometry written to block  1 of record 700

 Orientation using atomic masses  
 Molecule type: Atom
 Rotational constants:       0.0000000      0.0000000      0.0000000 GHz  (calculated with average atomic masses)

 Point group  C1  



 ATOMIC COORDINATES

 NR  ATOM    CHARGE       X              Y              Z

   1  LI      3.00    0.000000000    0.000000000    0.000000000

 NUCLEAR CHARGE:                    3
 NUMBER OF PRIMITIVE AOS:         152
 NUMBER OF SYMMETRY AOS:          122
 NUMBER OF CONTRACTIONS:          109   (  109A   )
 NUMBER OF INNER CORE ORBITALS:     0   (    0A   )
 NUMBER OF OUTER CORE ORBITALS:     1   (    1A   )
 NUMBER OF VALENCE ORBITALS:        4   (    4A   )


 NUCLEAR REPULSION ENERGY    0.00000000


 Library entry LI     S aug-cc-pVDZ-MP2F     selected for OEP group  1
 Library entry LI     P aug-cc-pVDZ-MP2F     selected for OEP group  1
 Library entry LI     D aug-cc-pVDZ-MP2F     selected for OEP group  1
 Library entry LI     F aug-cc-pVDZ-MP2F     selected for OEP group  1
 Basis set:    OEP
 Basis size:    72
 Sphericals:   T

 **********************************************************************************************************************************

 EXTRA SYMMETRY OF AOS IN SYMMETRY 1:   1 1 1 1 1 1 1 1 1 2   3 4 2 3 4 2 3 4 2 3   4 2 3 4 2 3 4 2 3 4   2 3 4 5 6 7 8 9 5 6
                                        7 8 9 5 6 7 8 9 5 6   7 8 9 5 6 7 8 9 5 6   7 8 910111213141516  10111213141516101112
                                       13141516101112131415  16171819202122232425  171819202122232425

 Eigenvalues of metric

         1 0.885E-04 0.470E-03 0.470E-03 0.470E-03 0.189E-02 0.993E-02 0.410E-01 0.410E-01


 Contracted 2-electron integrals neglected if value below      1.0D-11
 AO integral compression algorithm  1   Integral accuracy      1.0D-11

     17.826 MB (compressed) written to integral file ( 13.2%)


 NUMBER OF SORTED TWO-ELECTRON INTEGRALS:   17973010.     BUFFER LENGTH:  32768
 NUMBER OF SEGMENTS:   2  SEGMENT LENGTH:   15997996      RECORD LENGTH: 524288

 Memory used in sort:      16.56 MW

 SORT1 READ    17015161. AND WROTE     1729514. INTEGRALS IN      6 RECORDS. CPU TIME:     0.02 SEC, REAL TIME:     0.03 SEC
 SORT2 READ     1729514. AND WROTE    17973010. INTEGRALS IN     68 RECORDS. CPU TIME:     0.13 SEC, REAL TIME:     0.15 SEC

 FILE SIZES:   FILE 1:    48.3 MBYTE,  FILE 4:    25.2 MBYTE,   TOTAL:     73.5 MBYTE

 OPERATOR DM      FOR CENTER  0  COORDINATES:    0.000000    0.000000    0.000000


 **********************************************************************************************************************************
 DATASETS  * FILE   NREC   LENGTH (MB)   RECORD NAMES
              1      19       38.46       500      610      700      900      950      970     1000      129      960     1100   
                                          VAR    BASINP    GEOM    SYMINP    ZMAT    AOBASIS   BASIS     P2S    ABASIS      S 
                                         1400     1410     1200     1210     1080     1600     1650     1300     1700   
                                           T        V       H0       H01     AOSYM     SMH    MOLCAS    ERIS     OPER   

 PROGRAMS   *        TOTAL       INT
 CPU TIMES  *         0.79      0.71
 REAL TIME  *         0.62 SEC
 DISK USED  *        70.43 MB
 **********************************************************************************************************************************


 Program * Restricted Hartree-Fock

 Orbital guess generated from atomic densities.

 Initial alpha occupancy:   2
 Initial beta  occupancy:   1

 NELEC=    3   SYM=1   MS2= 1   THRE=1.0D-08   THRD=3.2D-06   THRG=3.2D-06  HFMA2=F  DIIS_START=2   DIIS_MAX=10   DIIS_INCORE=F

 Level shifts:    0.00 (CLOSED)    0.00 (OPEN)    0.30 (GAP_MIN)

 ITER           ETOT              DE          GRAD        DDIFF     DIIS  NEXP   TIME(IT)  TIME(TOT)  DIAG
   1       -7.43039107      -7.43039107     0.00D+00     0.28D-01     0     0       0.74      1.14    start

 Orbitals not optimized (maxit=1)

 Final alpha occupancy:   2
 Final beta  occupancy:   1

 !RHF STATE 1.1 Energy                 -7.430391067465
  RHF One-electron energy              -9.655470377306
  RHF Two-electron energy               2.225079309841
  RHF Kinetic energy                    7.387614243449
  RHF Nuclear energy                    0.000000000000
  RHF Virial quotient                  -1.005790343487

 !RHF STATE 1.1 Dipole moment           0.00000000     0.00000000     0.00000000
 Dipole moment /Debye                   0.00000000     0.00000000     0.00000000

 Orbital energies:

           1.1          2.1          3.1          4.1
     -2.505650    -0.194012     0.010843     0.010843


 HOMO      2.1    -0.194012 =      -5.2793eV
 LUMO      3.1     0.010843 =       0.2950eV
 LUMO-HOMO         0.204855 =       5.5744eV

 Orbitals saved in record  2100.2


 **********************************************************************************************************************************
 DATASETS  * FILE   NREC   LENGTH (MB)   RECORD NAMES
              1      19       38.46       500      610      700      900      950      970     1000      129      960     1100   
                                          VAR    BASINP    GEOM    SYMINP    ZMAT    AOBASIS   BASIS     P2S    ABASIS      S 
                                         1400     1410     1200     1210     1080     1600     1650     1300     1700   
                                           T        V       H0       H01     AOSYM     SMH    MOLCAS    ERIS     OPER   

              2       4        0.76       700     1000      520     2100   
                                         GEOM     BASIS   MCVARS     RHF  

 PROGRAMS   *        TOTAL    HF-SCF       INT
 CPU TIMES  *         1.95      1.15      0.71
 REAL TIME  *         0.83 SEC
 DISK USED  *        70.43 MB
 **********************************************************************************************************************************


 PROGRAM * MATROP


 READING MATRIX DEN (DENSITY) FROM FILE dm.dat. SYMMETRY=1

 Charge density  DEN saved in record 1325.1 (set 1)


 **********************************************************************************************************************************
 DATASETS  * FILE   NREC   LENGTH (MB)   RECORD NAMES
              1      20       38.60       500      610      700      900      950      970     1000      129      960     1100   
                                          VAR    BASINP    GEOM    SYMINP    ZMAT    AOBASIS   BASIS     P2S    ABASIS      S 
                                         1400     1410     1200     1210     1080     1600     1650     1300     1700     1325   
                                           T        V       H0       H01     AOSYM     SMH    MOLCAS    ERIS     OPER    MATROP    

              2       4        0.76       700     1000      520     2100   
                                         GEOM     BASIS   MCVARS     RHF  

 PROGRAMS   *        TOTAL    MATROP    HF-SCF       INT
 CPU TIMES  *         2.35      0.39      1.15      0.71
 REAL TIME  *         0.94 SEC
 DISK USED  *        70.43 MB
 **********************************************************************************************************************************

 Library entry LI     S aug-cc-pVDZ-MP2F     selected for OEP group  1
 Library entry LI     P aug-cc-pVDZ-MP2F     selected for OEP group  1
 Library entry LI     D aug-cc-pVDZ-MP2F     selected for OEP group  1
 Library entry LI     F aug-cc-pVDZ-MP2F     selected for OEP group  1
 Basis set:    OEP
 Basis size:    72
 Sphericals:   T

 PROGRAM * KSINV     (Kohn-Sham Inversion)
 Authors: J. Erhard, E. Trushin

 Read Reference Density from 1325.1
 Read Orbital Records from 2100.2
 Write Orbital Records to 2101.2
 Reference energy:       -7.475872692580
 Threshold for inversion convergence:     1.000E-10
 Maximum number of iterations:  30
 Minimum number of iterations:   3
 mixing_a:    1.000E-01
 mix_switch_iter:   3
 Use backfiltering: T
 Thresholds for processing of OEP basis set:
 thr_symmetry:   0.000E+00
 thr_overlap_oep:     1.000E-99
 thr_fai_oep:     1.700E-02
 Fermi-Amaldi as reference potential: T
 Construct the Hartree potential in the OEP basis: F
 Threshold for eigenvalue difference in calculation of Lambda:    1.000E-06
 Threshold for eigenproblem solver of OEP equation:    1.000E-99
 Solver for eigenproblems: GTSVD
 noa:   2
 nob:   1

 Density matrix read from record         1325.1  Type=MATROP/CHARGE  
 Occupation numbers read from record     2100.2  Type=RHF/RHF  

   ITER        ENERGY             |t|          TIME
     0                                          0.11
     1       -6.9754855986     0.105E+00        0.24
     2       -7.0255501061     0.948E-01        0.37
     3       -7.0702921520     0.856E-01        0.50
     4       -7.1103369946     0.772E-01        0.63
     5       -7.1575533919     0.671E-01        0.76
     6       -7.2136739815     0.550E-01        0.89
     7       -7.2801623096     0.403E-01        1.02
     8       -7.3550900347     0.237E-01        1.14
     9       -7.4254284753     0.851E-02        1.27
    10       -7.4658636209     0.143E-02        1.40
    11       -7.4749000089     0.503E-03        1.53
    12       -7.4763377027     0.359E-04        1.66
    13       -7.4764163778     0.607E-04        1.79
    14       -7.4762845966     0.158E-05        1.92
    15       -7.4762636055     0.683E-05        2.05
    16       -7.4762768052     0.816E-06        2.18
    17       -7.4762804455     0.710E-06        2.31
    18       -7.4762792662     0.160E-06        2.44
    19       -7.4762787381     0.668E-07        2.57
    20       -7.4762788247     0.246E-07        2.70
    21       -7.4762788934     0.540E-08        2.83
    22       -7.4762788899     0.332E-08        2.96
    23       -7.4762788816     0.312E-09        3.09
    24       -7.4762788813     0.411E-09        3.22
    25       -7.4762788822     0.248E-11        3.69

 Diff E_x:       0.005885320642
 Diff E_H:       0.001241107626
 Diff E_kin:     0.039766931003
 Diff E_ext:     0.000406189605

 SCF converged in    25 iterations

 KSINV orbitals written to record    2101.2
 
 !KSINV Total energy                   -7.476278882185
  KSINV One-electron energy            -9.716420581540
  KSINV Two-electron energy             2.285015956569
  KSINV Nuclear energy                  0.000000000000
  KSINV Coulomb energy                  4.062825148332
  KSINV Exchange energy                -1.777809191763
  KSINV Correlation energy             -0.044874257214
 
 !KSINV Dipole moment                   0.00000000    -0.00000000    -0.00000000
 Dipole moment /Debye                   0.00000000    -0.00000000    -0.00000000

 KSINV eigenvalues
   1-  10  -0.21225E+01 -0.18488E+00 -0.12066E+00 -0.12066E+00 -0.12066E+00 -0.73159E-01 -0.55982E-01 -0.55982E-01 -0.55982E-01 -0.44003E-01
  11-  11  -0.44003E-01

 HOMO (alpha): -0.18488E+00
 LUMO (alpha): -0.12066E+00
 LUMO-HOMO (alpha):  0.64217E-01
 HOMO (beta): -0.21225E+01
 LUMO (beta): -0.18488E+00
 LUMO-HOMO (beta):  0.19376E+01


 **********************************************************************************************************************************
 DATASETS  * FILE   NREC   LENGTH (MB)   RECORD NAMES
              1      20       38.60       500      610      700      900      950      970     1000      129      960     1100   
                                          VAR    BASINP    GEOM    SYMINP    ZMAT    AOBASIS   BASIS     P2S    ABASIS      S 
                                         1400     1410     1200     1210     1080     1600     1650     1300     1700     1325   
                                           T        V       H0       H01     AOSYM     SMH    MOLCAS    ERIS     OPER    MATROP    

              2       5        1.08       700     1000      520     2100     2101   
                                         GEOM     BASIS   MCVARS     RHF     KSINV   

 PROGRAMS   *        TOTAL      ACFD    MATROP    HF-SCF       INT
 CPU TIMES  *        22.67     20.32      0.39      1.15      0.71
 REAL TIME  *         4.84 SEC
 DISK USED  *        70.43 MB
 **********************************************************************************************************************************

 ACFD/aug-cc-pWCVQZ energy=     -7.476278882185

            ACFD          HF-SCF
     -7.47627888     -7.43039107
 **********************************************************************************************************************************
 Molpro calculation terminated
