
 Working directory              : /tmp/trushin/molpro.kcAsjftnSQ/
 Global scratch directory       : /tmp/trushin/molpro.kcAsjftnSQ/
 Wavefunction directory         : /home/trushin/wfu/
 Main file repository           : /tmp/trushin/molpro.kcAsjftnSQ/

 id        : chemie

 Nodes         nprocs
 trushin-laptop    1
 GA implementation: MPI file
 GA implementation (serial work in mppx): MPI file

 Using customized tuning parameters: mindgm=1; mindgv=20; mindgc=4; mindgr=1; noblas=0; minvec=7
 default implementation of scratch files=df  


 Variables initialized (1042), CPU time= 0.01 sec
 gdirect                                                                         ! integral-direct mode
 
 basis={
 default,aug-cc-pwCVQZ                                                           ! orbital basis
 set,oep;default,aug-cc-pVDZ/mp2fit                                              ! OEP basis
 set,dfit;default,aug-cc-pwCV5Z/mp2fit
 }
 
 symmetry,nosym                                                                  ! USCEXX does not use symmetry
 
 angstrom
 geometry={
 3
 N 0.000000 0.000000 0.142235
 H 0.000000 0.800646 -0.497821
 H 0.000000 -0.800646 -0.497821
 }
 
 spin=1
 
 df-uhf,maxit=0,df_basis=dfit                                                    ! HF calculation with 0 iterations
 {cfit,basis_coul=dfit,basis_exch=dfit}
 
 acfd;uscexx,thr_fai_oep=1.7d-2                                                  ! USCEXX calculation
 Commands initialized (847), CPU time= 0.00 sec, 718 directives.
 Default parameters read. Elapsed time= 0.05 sec

 Checking input...
 Passed
1


                                         ***  PROGRAM SYSTEM MOLPRO  ***
                                       Copyright, TTI GmbH Stuttgart, 2015
                                    Version 2024.2 linked Mon Feb 19 20:15:02 2024


 **********************************************************************************************************************************
 LABEL *                                                                                                                                                                 
  (16 PROC) 64 bit serial version                                                        DATE: 01-Mar-24          TIME: 01:54:34  
 **********************************************************************************************************************************

 SHA1:             a6259be3911a4aa80cd6f67916bf2f25c27a7970
 **********************************************************************************************************************************

 Memory per process:      2000 MW
 Total memory per node:   2000 MW

 GA preallocation disabled
 GA check disabled

 Variable memory set to 2000.0 MW

 SETTING BASIS          =    AUG-CC-PWCVQZ
 ZSYMEL=NOSYM
 ZUNIT=ANG


 Geometry recognized as XYZ

 SETTING SPIN           =         1.00000000                                  


 Recomputing integrals since basis changed


 Using spherical harmonics

 Library entry N      S aug-cc-pwCVQZ        selected for orbital group  1
 Library entry N      P aug-cc-pwCVQZ        selected for orbital group  1
 Library entry N      D aug-cc-pwCVQZ        selected for orbital group  1
 Library entry N      F aug-cc-pwCVQZ        selected for orbital group  1
 Library entry N      G aug-cc-pwCVQZ        selected for orbital group  1
 Library entry H      S aug-cc-pVQZ          selected for orbital group  2
 Library entry H      P aug-cc-pVQZ          selected for orbital group  2
 Library entry H      D aug-cc-pVQZ          selected for orbital group  2
 Library entry H      F aug-cc-pVQZ          selected for orbital group  2


 PROGRAM * SEWARD (Integral evaluation for generally contracted gaussian basis sets)     Author: Roland Lindh, 1990

 Geometry written to block  1 of record 700


 Point group  C1  



 ATOMIC COORDINATES

 NR  ATOM    CHARGE       X              Y              Z

   1  N       7.00    0.000000000    0.000000000    0.268785195
   2  H       1.00    0.000000000    1.513001663   -0.940745349
   3  H       1.00    0.000000000   -1.513001663   -0.940745349

 Bond lengths in Bohr (Angstrom)

 1-2  1.937043667  1-3  1.937043667
     ( 1.025039365)     ( 1.025039365)

 Bond angles

  2-1-3  102.72060910

 NUCLEAR CHARGE:                    9
 NUMBER OF PRIMITIVE AOS:         266
 NUMBER OF SYMMETRY AOS:          218
 NUMBER OF CONTRACTIONS:          201   (  201A   )
 NUMBER OF INNER CORE ORBITALS:     0   (    0A   )
 NUMBER OF OUTER CORE ORBITALS:     1   (    1A   )
 NUMBER OF VALENCE ORBITALS:        6   (    6A   )


 NUCLEAR REPULSION ENERGY    7.55797762


 Basis set:    OEP
 Basis size:   118
 Sphericals:   T
 Basis set:    DFIT
 Basis size:   582
 Sphericals:   T

 **********************************************************************************************************************************

 EXTRA SYMMETRY OF AOS IN SYMMETRY 1:   1 1 1 1 1 1 1 1 1 2   1 1 2 1 1 2 1 1 2 1   1 2 1 1 2 1 1 2 1 1   2 1 1 1 2 2 1 1 1 2
                                        2 1 1 1 2 2 1 1 1 2   2 1 1 1 2 2 1 1 1 2   2 1 1 2 1 1 2 2 1 1   2 1 1 2 2 1 1 2 1 1
                                        2 2 1 1 2 1 1 2 2 1   1 1 2 2 1 1 1 2 2 1   1 2 2 1 1 1 2 2 1 1   1 1 1 1 2 1 1 2 1 1
                                        2 1 1 2 1 1 1 2 2 1   1 1 2 2 1 1 1 2 2 1   1 2 1 1 2 2 1 1 2 1   1 2 2 1 1 1 1 1 1 1
                                        2 1 1 2 1 1 2 1 1 2   1 1 1 2 2 1 1 1 2 2   1 1 1 2 2 1 1 2 1 1   2 2 1 1 2 1 1 2 2 1
                                        1

 Eigenvalues of metric

         1 0.243E-04 0.914E-04 0.106E-03 0.418E-03 0.459E-03 0.755E-03 0.789E-03 0.986E-03


 OPERATOR DM      FOR CENTER  0  COORDINATES:    0.000000    0.000000    0.000000


 **********************************************************************************************************************************
 DATASETS  * FILE   NREC   LENGTH (MB)   RECORD NAMES
              1      18       30.07       500      610      700      900      950      970     1000      129      960     1100   
                                          VAR    BASINP    GEOM    SYMINP    ZMAT    AOBASIS   BASIS     P2S    ABASIS      S 
                                         1400     1410     1200     1210     1080     1600     1650     1700   
                                           T        V       H0       H01     AOSYM     SMH    MOLCAS    OPER   

 PROGRAMS   *        TOTAL       INT
 CPU TIMES  *         0.67      0.58
 REAL TIME  *         1.07 SEC
 DISK USED  *        30.47 MB
 **********************************************************************************************************************************


 Program * Unrestricted Hartree-Fock

 Coulomb and exchange fitting
 Thresholds for fitting:       THRAO_COUL= 1.0D-15    THRAO_EXCH= 1.0D-13    THRMO= 1.0D-12    THRPROD= 1.0D-12    THRASM= 1.0D-12
                               THR2HLF=    1.0D-12

 Basis set DFIT loaded. Number of basis functions: 582

 Orbital guess generated from atomic densities.
 Using density fitting in orbital guess


 Initial alpha occupancy:   5
 Initial beta  occupancy:   4

 Elapsed time for starting guess:      1.87 sec

 NELEC=    9   SYM=1   MS2=1   THRE=1.0D-08   THRD=3.2D-06   THRG=3.2D-06  HFMA2=F  DIIS_START=2   DIIS_MAX=10   DIIS_INCORE=F

 Initial level shifts:    0.20 (ALPHA)    0.20 (BETA)

 ITER         ETOT            DE          GRAD         DDIFF    DIIS  NEXP   TIME(IT)  TIME(TOT)  DIAG
   1    -55.57385256   -55.57385256     0.00D+00     0.00D+00     0     0       3.15      5.02    start

 Orbitals not optimized (maxit=1)

 Final alpha occupancy:   5
 Final beta  occupancy:   4

 !UHF STATE 1.1 Energy                -55.573852560879
  UHF One-electron energy             -90.099776936155
  UHF Two-electron energy              26.967946750675
  UHF Kinetic energy                   55.420321809165
  UHF Nuclear energy                    7.557977624601
  UHF Virial quotient                  -1.002770297008

 !UHF STATE 1.1 Dipole moment           0.00000000    -0.00000000    -0.94333429
 Dipole moment /Debye                   0.00000000    -0.00000000    -2.39771660

 EXPECTATION VALUE OF S**2:             0.75000000

 Orbital energies for positive spin:

           1.1          2.1          3.1          4.1          5.1          6.1          7.1
    -15.705777    -1.255498    -0.590590    -0.402370    -0.296294     0.020856     0.044718

 Orbital energies for negative spin:

           1.1          2.1          3.1          4.1          5.1          6.1
    -15.705777    -1.255498    -0.590590    -0.402370    -0.296294     0.020856


 HOMO      5.1    -0.296294 =      -8.0626eV
 LUMO     -5.1    -0.296294 =      -8.0626eV
 LUMO-HOMO         0.000000 =       0.0000eV

 Orbitals saved in record  2200.2

 Occupation number threshold for pseudo-canonical orbitals: 1.9990 (occupied), 0.0010 (virtual)

 Number of pseudo-canonical occupied orbitals per symmetry:    4
 Number of active natural orbitals per symmetry:               1

 Natural orbitals saved to record    2200.2 (Orbital set 3)

 Orbital spaces for UNO-CAS (Min. occupation: 0.020  Max. occupation: 1.980):

 Closed:        4
 Active:        1


 **********************************************************************************************************************************
 DATASETS  * FILE   NREC   LENGTH (MB)   RECORD NAMES
              1      18       30.07       500      610      700      900      950      970     1000      129      960     1100   
                                          VAR    BASINP    GEOM    SYMINP    ZMAT    AOBASIS   BASIS     P2S    ABASIS      S 
                                         1400     1410     1200     1210     1080     1600     1650     1700   
                                           T        V       H0       H01     AOSYM     SMH    MOLCAS    OPER   

              2       4        1.99       700     1000      520     2200   
                                         GEOM     BASIS   MCVARS     UHF  

 PROGRAMS   *        TOTAL    DF-UHF       INT
 CPU TIMES  *         6.79      6.11      0.58
 REAL TIME  *         2.27 SEC
 DISK USED  *        38.57 MB
 **********************************************************************************************************************************

 Basis set:    OEP
 Basis size:   118
 Sphericals:   T
 Basis set:    DFIT
 Basis size:   582
 Sphericals:   T

 PROGRAM * USCEXX      (unrestricted self-consistent exact-exchange)

 Authors:
 A. Hesselmann, P. Bleiziffer, D. Schmidtel, J. Erhard, A. Thierbach, E. Trushin

 Read Orbital Records from 2200.2
 Write Orbital Records to 2201.2
 Use density fitting to evaluate the Coulomb and exchange integrals: T
 Maximum number of iterations:  30
 Minimum number of iterations:   3
 DIIS is used:
 Maximum size of DIIS matrix:  10
 Threshold for energy convergence:   1.000E-08
 Threshold for density convergence:   0.000E+00
 Thresholds for processing of OEP basis set:
 thr_symmetry:   0.000E+00
 thr_overlap_oep:     1.000E-99
 thr_fai_oep:     1.700E-02
 Threshold for eigenvalue difference in calculation of Lambda:    1.000E-06
 Threshold for eigenproblem solver of OEP equation:    1.000E-99
 Solver for eigenproblems: GTSVD
 Spin-symmetrization: F
 Space-symmetrization: F
 Constucting Hartree potential in OEP basis: F
 Fermi-Amaldi as reference potential: T
 HOMO condition: F
 The same reference potential for alpha and beta: F

 Molecular orbitals read from record     2200.2  Type=UHF/ALPHA  
 Orbital energies read from record       2200.2  Type=UHF/ALPHA  
 Density matrix read from record         2200.2  Type=UHF/CHARGE  
 Molecular orbitals read from record     2200.2  Type=UHF/BETA  
 Orbital energies read from record       2200.2  Type=UHF/BETA  
 Density matrix read from record         2200.2  Type=UHF/SPIN  
 Occupation numbers read from record     2200.2  Type=UHF/UHF  
 Occupation numbers read from record     2200.2  Type=UHF/UHF  

   ITER        ENERGY            EDIFF       DDIFF       DIIS         TIME
     0      -55.5738525609                                            1.98
     1      -55.5846628481    -0.108E-01   0.488E-02      1           4.73
     2      -55.5867515243    -0.209E-02   0.128E-02      2           7.54
     3      -55.5880858708    -0.133E-02   0.718E-03      3          10.23
     4      -55.5882725186    -0.187E-03   0.245E-03      4          13.29
     5      -55.5882687343     0.378E-05   0.653E-04      5          15.78
     6      -55.5882602212     0.851E-05   0.135E-03      6          18.31
     7      -55.5882521295     0.809E-05   0.392E-04      7          20.80
     8      -55.5882517961     0.333E-06   0.186E-05      7          23.39
     9      -55.5882522331    -0.437E-06   0.187E-05      6          26.01
    10      -55.5882525197    -0.287E-06   0.126E-05      6          28.69
    11      -55.5882525165     0.323E-08   0.436E-07      5          31.26

 SCF converged in    11 iterations

 USCEXX orbitals written to record    2201.2
 
 !USCEXX Total energy                 -55.588252516485
  USCEXX One-electron energy          -90.170850751170
  USCEXX Two-electron energy           27.024620610084
  USCEXX Nuclear energy                 7.557977624601
  USCEXX Coulomb energy                34.309285720129
  USCEXX Exchange energy               -7.284665110045
 
 !USCEXX Dipole moment                 -0.00000000     0.00000000    -0.75288003
 Dipole moment /Debye                  -0.00000000     0.00000000    -1.91363016

 EXPECTATION VALUE OF S**2:             0.75952625

 USCEXX eigenvalues (alpha)
   1-  10  -0.14182E+02 -0.96972E+00 -0.59765E+00 -0.46820E+00 -0.46452E+00 -0.15798E+00 -0.10254E+00 -0.78150E-01 -0.71133E-01 -0.45862E-01
  11-  15  -0.34235E-01 -0.15039E-01 -0.10132E-01  0.51846E-02  0.24781E-01

 HOMO (alpha): -0.46452E+00
 LUMO (alpha): -0.15798E+00
 LUMO-HOMO (alpha):  0.30654E+00

 USCEXX eigenvalues (beta)
   1-  10  -0.14167E+02 -0.89177E+00 -0.57030E+00 -0.42829E+00 -0.29748E+00 -0.14978E+00 -0.99272E-01 -0.69918E-01 -0.62474E-01 -0.39534E-01
  11-  15  -0.32263E-01 -0.12269E-01 -0.91059E-02  0.92334E-02  0.33972E-01

 HOMO (beta): -0.42829E+00
 LUMO (beta): -0.29748E+00
 LUMO-HOMO (beta):  0.13080E+00


 **********************************************************************************************************************************
 DATASETS  * FILE   NREC   LENGTH (MB)   RECORD NAMES
              1      18       30.07       500      610      700      900      950      970     1000      129      960     1100   
                                          VAR    BASINP    GEOM    SYMINP    ZMAT    AOBASIS   BASIS     P2S    ABASIS      S 
                                         1400     1410     1200     1210     1080     1600     1650     1700   
                                           T        V       H0       H01     AOSYM     SMH    MOLCAS    OPER   

              2       5        3.79       700     1000      520     2200     2201   
                                         GEOM     BASIS   MCVARS     UHF    USCEXX    

              4       5       12.87      4000     2900     3000     3100     3200   
                                         JMAT   

 PROGRAMS   *        TOTAL      ACFD    DF-UHF       INT
 CPU TIMES  *       155.09    148.29      6.11      0.58
 REAL TIME  *        33.57 SEC
 DISK USED  *        53.36 MB
 **********************************************************************************************************************************

 ACFD/aug-cc-pWCVQZ energy=    -55.588252516485

            ACFD          DF-UHF
    -55.58825252    -55.57385256
 **********************************************************************************************************************************
 Molpro calculation terminated
