
 Working directory              : /tmp/trushin/molpro.3yMyDa9Iro/
 Global scratch directory       : /tmp/trushin/molpro.3yMyDa9Iro/
 Wavefunction directory         : /home/trushin/wfu/
 Main file repository           : /tmp/trushin/molpro.3yMyDa9Iro/

 id        : chemie

 Nodes         nprocs
 trushin-laptop    1
 GA implementation: MPI file
 GA implementation (serial work in mppx): MPI file

 Using customized tuning parameters: mindgm=1; mindgv=20; mindgc=4; mindgr=1; noblas=0; minvec=7
 default implementation of scratch files=df  


 Variables initialized (1064), CPU time= 0.00 sec
 basis={
 default,aug-cc-pwCVTZ                                                           ! orbital basis
 }
 
 symmetry,nosym                                                                  ! KSINV does not use symmetry
 
 angstrom
 geometry={
 2
 C        0.000000    0.000000   -0.646514
 O        0.000000    0.000000    0.484886
 }
 
 hf,maxit=30                                                                     ! HF calculations
 
 {CCSD;core;dm,1325.1}                                                           ! reference CCSD calculation
 {matrop;load,den,den,1325.1;write,den,dm.dat,status=rewind,prec=sci}
 Commands initialized (839), CPU time= 0.01 sec, 728 directives.
 Default parameters read. Elapsed time= 0.05 sec

 Checking input...
 Passed
1


                                         ***  PROGRAM SYSTEM MOLPRO  ***
                                       Copyright, TTI GmbH Stuttgart, 2015
                                  Version 2025.3 linked Fri Jul 25 19:30:30 2025


 **********************************************************************************************************************************
 LABEL *                                                                                                                                                                 
                                                                                         DATE: 25-Jul-25          TIME: 22:47:43  
 **********************************************************************************************************************************

 SHA1:             75e8eeae7fb56d6b934318e4f3baafa252b7f4c8
 **********************************************************************************************************************************

 Memory per process:      2000 MW
 Total memory per node:   2000 MW

 GA preallocation disabled
 GA check disabled

 Variable memory set to 2000.0 MW

 SETTING BASIS          =    AUG-CC-PWCVTZ

 ZSYMEL=NOSYM


 Geometry recognized as XYZ



 Recomputing integrals since basis changed


 Using spherical harmonics

 Library entry C      S aug-cc-pwCVTZ        selected for orbital group  1
 Library entry C      P aug-cc-pwCVTZ        selected for orbital group  1
 Library entry C      D aug-cc-pwCVTZ        selected for orbital group  1
 Library entry C      F aug-cc-pwCVTZ        selected for orbital group  1
 Library entry O      S aug-cc-pwCVTZ        selected for orbital group  2
 Library entry O      P aug-cc-pwCVTZ        selected for orbital group  2
 Library entry O      D aug-cc-pwCVTZ        selected for orbital group  2
 Library entry O      F aug-cc-pwCVTZ        selected for orbital group  2


 PROGRAM * SEWARD (Integral evaluation for generally contracted gaussian basis sets)     Author: Roland Lindh, 1990

 Geometry written to block  1 of record 700


 Point group  C1  



 ATOMIC COORDINATES

 NR  ATOM    CHARGE       X              Y              Z

   1  C       6.00    0.000000000    0.000000000   -1.221734396
   2  O       8.00    0.000000000    0.000000000    0.916301742

 Bond lengths in Bohr (Angstrom)

 1-2  2.138036137
     ( 1.131400000)

 NUCLEAR CHARGE:                   14
 NUMBER OF PRIMITIVE AOS:         162
 NUMBER OF SYMMETRY AOS:          142
 NUMBER OF CONTRACTIONS:          118   (  118A   )
 NUMBER OF INNER CORE ORBITALS:     0   (    0A   )
 NUMBER OF OUTER CORE ORBITALS:     2   (    2A   )
 NUMBER OF VALENCE ORBITALS:        8   (    8A   )


 NUCLEAR REPULSION ENERGY 22.45050921

 EXTRA SYMMETRY OF AOS IN SYMMETRY 1:   1 1 1 1 1 1 1 2 3 1   2 3 1 2 3 1 2 3 1 2   3 1 2 3 1 1 4 2 5 3   1 4 2 5 3 1 4 2 5 3
                                        1 4 2 5 3 2 3 1 6 4   7 5 2 3 1 6 4 7 5 1   1 1 1 1 1 1 2 3 1 2   3 1 2 3 1 2 3 1 2 3
                                        1 2 3 1 1 4 2 5 3 1   4 2 5 3 1 4 2 5 3 1   4 2 5 3 2 3 1 6 4 7   5 2 3 1 6 4 7 5

 Eigenvalues of metric

         1 0.324E-03 0.776E-03 0.119E-02 0.285E-02 0.285E-02 0.449E-02 0.592E-02 0.134E-01


 Contracted 2-electron integrals neglected if value below      1.0D-11
 AO integral compression algorithm  1   Integral accuracy      1.0D-11

     37.749 MB (compressed) written to integral file ( 13.9%)


 NUMBER OF SORTED TWO-ELECTRON INTEGRALS:   24650731.     BUFFER LENGTH:  32768
 NUMBER OF SEGMENTS:   2  SEGMENT LENGTH:   15997996      RECORD LENGTH: 524288

 Memory used in sort:      16.56 MW

 SORT1 READ    33852459. AND WROTE     4825692. INTEGRALS IN     15 RECORDS. CPU TIME:     0.13 SEC, REAL TIME:     0.13 SEC
 SORT2 READ     4825692. AND WROTE    24650731. INTEGRALS IN    144 RECORDS. CPU TIME:     0.21 SEC, REAL TIME:     0.21 SEC

 FILE SIZES:   FILE 1:    68.7 MBYTE,  FILE 4:    63.0 MBYTE,   TOTAL:    131.7 MBYTE

 OPERATOR DM      FOR CENTER  0  COORDINATES:    0.000000    0.000000    0.000000


 **********************************************************************************************************************************
 DATASETS  * FILE   NREC   LENGTH (MB)   RECORD NAMES
              1      19       52.58       500      610      700      900      950      970     1000      129      960     1100   
                                          VAR    BASINP    GEOM    SYMINP    ZMAT    AOBASIS   BASIS     P2S    ABASIS      S 
                                         1400     1410     1200     1210     1080     1600     1650     1300     1700   
                                           T        V       H0       H01     AOSYM     SMH    MOLCAS    ERIS     OPER   

 PROGRAMS   *        TOTAL       INT
 CPU TIMES  *         2.59      2.50
 REAL TIME  *         2.59 SEC
 DISK USED  *       125.97 MB
 **********************************************************************************************************************************


 Program * Restricted Hartree-Fock

 Generating basis MINAO
  Atom=C        basis=MINAO
  Atom=O        basis=MINAO
 Number of basis functions:      10

 Orbital guess generated from atomic densities.

 Initial occupancy:   7

 NELEC=   14   SYM=1   MS2= 0   THRE=1.0D-08   THRD=3.2D-06   THRG=3.2D-06  HFMA2=F  DIIS_START=2   DIIS_MAX=10   DIIS_INCORE=F

 Level shifts:    0.00 (CLOSED)    0.00 (OPEN)    0.30 (GAP_MIN)

 ITER           ETOT              DE          GRAD        DDIFF     DIIS  NEXP   TIME(IT)  TIME(TOT)  DIAG
   1     -112.76121064    -112.76121064     0.00D+00     0.58D-01     0     0       0.13      0.25    start
   2     -112.77390265      -0.01269201     0.57D-02     0.65D-02     1     0       0.12      0.38    diag
   3     -112.78158504      -0.00768239     0.38D-02     0.26D-02     2     0       0.12      0.50    diag
   4     -112.78189936      -0.00031432     0.76D-03     0.53D-03     3     0       0.12      0.63    diag
   5     -112.78191805      -0.00001869     0.12D-03     0.16D-03     4     0       0.13      0.75    diag
   6     -112.78191921      -0.00000115     0.25D-04     0.45D-04     5     0       0.12      0.88    diag
   7     -112.78191923      -0.00000002     0.42D-05     0.63D-05     6     0       0.12      1.00    diag
   8     -112.78191923      -0.00000000     0.89D-06     0.14D-05     7     0       0.13      1.13    fixocc
   9     -112.78191923      -0.00000000     0.20D-06     0.21D-06     0     0       0.12      1.25    diag

 Final occupancy:   7

 !RHF STATE 1.1 Energy               -112.781919233160
  RHF One-electron energy            -198.087277624736
  RHF Two-electron energy              62.854849178792
  RHF Kinetic energy                  112.603257699595
  RHF Nuclear energy                   22.450509212784
  RHF Virial quotient                  -1.001586646223

 !RHF STATE 1.1 Dipole moment          -0.00000000    -0.00000000    -0.11207338
 Dipole moment /Debye                  -0.00000000    -0.00000000    -0.28486212

 Orbital energies:

           1.1          2.1          3.1          4.1          5.1          6.1          7.1          8.1          9.1
    -20.667242   -11.362662    -1.520691    -0.804674    -0.639019    -0.639019    -0.555475     0.068814     0.070107


 HOMO      7.1    -0.555475 =     -15.1152eV
 LUMO      8.1     0.068814 =       1.8725eV
 LUMO-HOMO         0.624289 =      16.9878eV

 Orbitals saved in record  2100.2


 **********************************************************************************************************************************
 DATASETS  * FILE   NREC   LENGTH (MB)   RECORD NAMES
              1      19       52.58       500      610      700      900      950      970     1000      129      960     1100   
                                          VAR    BASINP    GEOM    SYMINP    ZMAT    AOBASIS   BASIS     P2S    ABASIS      S 
                                         1400     1410     1200     1210     1080     1600     1650     1300     1700   
                                           T        V       H0       H01     AOSYM     SMH    MOLCAS    ERIS     OPER   

              2       4        0.62       700     1000      520     2100   
                                         GEOM     BASIS   MCVARS     RHF  

 PROGRAMS   *        TOTAL    HF-SCF       INT
 CPU TIMES  *         3.85      1.26      2.50
 REAL TIME  *         3.85 SEC
 DISK USED  *       125.97 MB
 **********************************************************************************************************************************


 PROGRAM * CCSD (Closed-shell coupled cluster)     Authors: C. Hampel, H.-J. Werner, 1991, M. Deegan, P.J. Knowles, 1992


 Convergence thresholds:  THRVAR = 1.00D-08  THRDEN = 1.00D-06

 Using ITF CCSD gradient implementation

 Number of closed-shell orbitals:   7 (   7 )
 Number of external orbitals:     111 ( 111 )

 Molecular orbitals read from record     2100.2  Type=RHF/CANONICAL (state 1.1)

 Integral transformation finished. Total CPU:   2.64 sec, npass=  1  Memory used:   7.59 MW
  Reference energy                   -112.781919233160

  MP2 correlation energy               -0.464780146256
  MP2 total energy                   -113.246699379416

 ITER.      SQ.NORM     CORR.ENERGY   TOTAL ENERGY   ENERGY CHANGE        DEN1      VAR(S)    VAR(P)  DIIS     TIME
   1      1.10312247    -0.47010620  -113.25202543    -0.00532605     0.01046149  4.47e-03  2.96e-03  1  1     4.59
   2      1.11418569    -0.46927895  -113.25119818     0.00082725    -0.01324650  6.99e-05  5.67e-04  2  2     9.18
   3      1.11697084    -0.46925942  -113.25117865     0.00001953     0.00010476  2.29e-05  6.42e-05  3  3    13.78
   4      1.11899403    -0.46919467  -113.25111390     0.00006475    -0.00114423  7.02e-07  1.56e-05  4  4    18.37
   5      1.12013190    -0.46912176  -113.25104100     0.00007291    -0.00041450  1.91e-08  1.12e-06  5  5    22.96
   6      1.12037522    -0.46910853  -113.25102777     0.00001323    -0.00007777  5.61e-09  4.71e-08  6  0    27.56
   7      1.12039296    -0.46910904  -113.25102827    -0.00000051    -0.00001079  2.08e-10  2.31e-09          32.13

 Norm of t1 vector:      0.08323108     S-energy:      0.00000075   T1 diagnostic:  0.01572920

 Time per iteration:                      4.59 sec

 RESULTS
 =======

  Reference energy                   -112.781919233160
  CCSD correlation energy              -0.469109041402
 !CCSD total energy                  -113.251028274562

 Starting CP-CCSD iterations.   Author: W. Gyorffy (2012)

 ITER.      NRM1           NRM2      VAR(S)+VAR(P)   DIIS    TIME
   1     0.00361642     0.32801586     1.63e-03      1  1    5.84
   2     0.00330361     0.32009927     2.16e-04      2  2   11.67
   3     0.00298675     0.32036474     2.99e-05      3  3   17.50
   4     0.00280402     0.31939677     6.07e-06      4  4   23.33
   5     0.00268768     0.31926251     5.30e-07      5  5   29.17
   6     0.00264313     0.31918937     3.97e-08      6  0   35.01
   7     0.00262985     0.31918745     3.33e-09             40.84


 Time per iteration:                      5.83 sec


 Starting Coupled-perturbed Hartree-Fock, convergence threshold= 1.0D-06

 ITER  FOCK  DIIS      VAR         VARC       CPU
   1     0     1    0.26D-01    0.00D+00     0.00
   2     1     1    0.10D-01    0.00D+00     0.12
   3     1     2    0.27D-02    0.00D+00     0.24
   4     1     3    0.80D-03    0.00D+00     0.36
   5     1     4    0.13D-03    0.00D+00     0.48
   6     1     5    0.29D-04    0.00D+00     0.60
   7     1     6    0.58D-05    0.00D+00     0.72
   8     1     6    0.98D-06    0.00D+00     0.84

 CPHF convergence reached in  7 macroiterations and    0 microiterations.   Accuracy: 9.7891D-07

 CPHF solution written to record  8500.2

 Dipole moments (unrelaxed):            0.00000000    -0.00000000     0.05008257
 Orbital relaxation contribution:      -0.00000000    -0.00000000    -0.02775689
 !CCSD STATE 1.1 Dipole moment         -0.00000000    -0.00000000     0.02232568
 Dipole moment /Debye                  -0.00000000    -0.00000000     0.05674621

 CPU-time for coupled-perturbed hartree-fock:          0.84 sec

 CCSD density matrix saved on record      1325.1 (density set 2, unrelaxed)

 CCSD density matrix saved on record      1325.1 (density set 3)




 **********************************************************************************************************************************
 DATASETS  * FILE   NREC   LENGTH (MB)   RECORD NAMES
              1      21       94.54       500      610      700      900      950      970     1000      129      960     1100   
                                          VAR    BASINP    GEOM    SYMINP    ZMAT    AOBASIS   BASIS     P2S    ABASIS      S 
                                         1400     1410     1200     1210     1080     1600     1650     1300     1700     1380   
                                           T        V       H0       H01     AOSYM     SMH    MOLCAS    ERIS     OPER     JKOP   
                                         1325   
                                         CCSD   

              2       5        0.99       700     1000      520     2100     8500   
                                         GEOM     BASIS   MCVARS     RHF     CPHF   

 PROGRAMS   *        TOTAL      CCSD    HF-SCF       INT
 CPU TIMES  *       105.37    101.52      1.26      2.50
 REAL TIME  *       103.01 SEC
 DISK USED  *       355.11 MB
 **********************************************************************************************************************************


 PROGRAM * MATROP


 Density DEN read from record            1325.1  Type=CCSD/CHARGE (state 1.1)

 Matrix DEN written to file dm.dat                          


 **********************************************************************************************************************************
 DATASETS  * FILE   NREC   LENGTH (MB)   RECORD NAMES
              1      21       94.54       500      610      700      900      950      970     1000      129      960     1100   
                                          VAR    BASINP    GEOM    SYMINP    ZMAT    AOBASIS   BASIS     P2S    ABASIS      S 
                                         1400     1410     1200     1210     1080     1600     1650     1300     1700     1380   
                                           T        V       H0       H01     AOSYM     SMH    MOLCAS    ERIS     OPER     JKOP   
                                         1325   
                                         CCSD   

              2       5        0.99       700     1000      520     2100     8500   
                                         GEOM     BASIS   MCVARS     RHF     CPHF   

 PROGRAMS   *        TOTAL    MATROP      CCSD    HF-SCF       INT
 CPU TIMES  *       105.38      0.01    101.52      1.26      2.50
 REAL TIME  *       103.02 SEC
 DISK USED  *       355.11 MB
 **********************************************************************************************************************************

            CCSD          HF-SCF
   -113.25102827   -112.78191923
 **********************************************************************************************************************************
 Molpro calculation terminated
