
 Working directory              : /tmp/trushin/molpro.sRRRULYEJR/
 Global scratch directory       : /tmp/trushin/molpro.sRRRULYEJR/
 Wavefunction directory         : /home/trushin/wfu/
 Main file repository           : /tmp/trushin/molpro.sRRRULYEJR/

 id        : chemieegortrushi

 Nodes         nprocs
 trushin-laptop    1
 GA implementation: MPI file
 GA implementation (serial work in mppx): MPI file

 Using customized tuning parameters: mindgm=1; mindgv=20; mindgc=4; mindgr=1; noblas=0; minvec=7
 default implementation of scratch files=df  


 Variables initialized (1028), CPU time= 0.00 sec
 memory,2000,m                                                                   ! memory specification
 
 basis={
 default,aug-cc-pwCVQZ                                                           ! orbital basis
 set,oep;default,aug-cc-pVDZ/mp2fit                                              ! OEP basis
 }
 
 symmetry,nosym                                                                  ! KSINV does not use symmetry
 
 angstrom
 geometry={
 2
 C        0.000000    0.000000   -0.646514
 O        0.000000    0.000000    0.484886
 }
 
 hf,maxit=30                                                                     ! HF calculations
 
 {CCSD;core;dm,1325.1}                                                           ! reference CCSD calculation
 e_ref_ccsd=energy                                                               ! save energy to provide as a reference to KSINV
 
                                                                     ! Save relaxed density to the first record - required by KSINV
 {matrop;load,den,den,1325.1;save,den,1325.1}
 
 acfd;ksinv,refden=1325.1,e_ref=e_ref_ccsd,thr_fai_oep=1.7d-2
 Commands initialized (841), CPU time= 0.01 sec, 692 directives.
 Default parameters read. Elapsed time= 0.05 sec

 Checking input...
 Passed
1


                                         ***  PROGRAM SYSTEM MOLPRO  ***
                                       Copyright, TTI GmbH Stuttgart, 2015
                                    Version 2023.1 linked Fri Apr  7 21:53:30 2023


 **********************************************************************************************************************************
 LABEL *                                                                                                                                                                 
  (16 PROC) 64 bit serial version                                                        DATE: 07-Apr-23          TIME: 22:13:50  
 **********************************************************************************************************************************

 SHA1:             6d59e52f6e9ecb459feb34330aba5e0f3971c0af
 **********************************************************************************************************************************

 Memory per process:      2000 MW
 Total memory per node:   2000 MW

 GA preallocation disabled
 GA check disabled

 Variable memory set to 2000.0 MW

 SETTING BASIS          =    AUG-CC-PWCVQZ
 ZSYMEL=NOSYM
 ZUNIT=ANG


 Geometry recognized as XYZ



 Recomputing integrals since basis changed


 Using spherical harmonics

 Library entry C      S aug-cc-pwCVQZ        selected for orbital group  1
 Library entry C      P aug-cc-pwCVQZ        selected for orbital group  1
 Library entry C      D aug-cc-pwCVQZ        selected for orbital group  1
 Library entry C      F aug-cc-pwCVQZ        selected for orbital group  1
 Library entry C      G aug-cc-pwCVQZ        selected for orbital group  1
 Library entry O      S aug-cc-pwCVQZ        selected for orbital group  2
 Library entry O      P aug-cc-pwCVQZ        selected for orbital group  2
 Library entry O      D aug-cc-pwCVQZ        selected for orbital group  2
 Library entry O      F aug-cc-pwCVQZ        selected for orbital group  2
 Library entry O      G aug-cc-pwCVQZ        selected for orbital group  2


 PROGRAM * SEWARD (Integral evaluation for generally contracted gaussian basis sets)     Author: Roland Lindh, 1990

 Geometry written to block  1 of record 700


 Point group  C1  



 ATOMIC COORDINATES

 NR  ATOM    CHARGE       X              Y              Z

   1  C       6.00    0.000000000    0.000000000   -1.221734396
   2  O       8.00    0.000000000    0.000000000    0.916301742

 Bond lengths in Bohr (Angstrom)

 1-2  2.138036137
     ( 1.131400000)

 NUCLEAR CHARGE:                   14
 NUMBER OF PRIMITIVE AOS:         304
 NUMBER OF SYMMETRY AOS:          244
 NUMBER OF CONTRACTIONS:          218   (  218A   )
 NUMBER OF INNER CORE ORBITALS:     0   (    0A   )
 NUMBER OF OUTER CORE ORBITALS:     2   (    2A   )
 NUMBER OF VALENCE ORBITALS:        8   (    8A   )


 NUCLEAR REPULSION ENERGY   22.45050921


 Basis set:    OEP
 Basis size:   144
 Sphericals:   T

 **********************************************************************************************************************************

 EXTRA SYMMETRY OF AOS IN SYMMETRY 1:   1 1 1 1 1 1 1 1 1 2   3 1 2 3 1 2 3 1 2 3   1 2 3 1 2 3 1 2 3 1   2 3 1 1 4 2 5 3 1 4
                                        2 5 3 1 4 2 5 3 1 4   2 5 3 1 4 2 5 3 1 4   2 5 3 2 3 1 6 4 7 5   2 3 1 6 4 7 5 2 3 1
                                        6 4 7 5 2 3 1 6 4 7   5 1 4 2 8 3 5 9 6 7   1 4 2 8 3 5 9 6 7 1   1 1 1 1 1 1 1 1 2 3
                                        1 2 3 1 2 3 1 2 3 1   2 3 1 2 3 1 2 3 1 2   3 1 1 4 2 5 3 1 4 2   5 3 1 4 2 5 3 1 4 2
                                        5 3 1 4 2 5 3 1 4 2   5 3 2 3 1 6 4 7 5 2   3 1 6 4 7 5 2 3 1 6   4 7 5 2 3 1 6 4 7 5
                                        1 4 2 8 3 5 9 6 7 1   4 2 8 3 5 9 6 7

 Eigenvalues of metric

         1 0.247E-04 0.291E-04 0.918E-04 0.392E-03 0.504E-03 0.504E-03 0.560E-03 0.833E-03


 Contracted 2-electron integrals neglected if value below      1.0D-12
 AO integral compression algorithm  1   Integral accuracy      1.0D-12

     392.430 MB (compressed) written to integral file ( 13.4%)


 NUMBER OF SORTED TWO-ELECTRON INTEGRALS:  284924256.     BUFFER LENGTH:  32768
 NUMBER OF SEGMENTS:  18  SEGMENT LENGTH:   15999762      RECORD LENGTH: 524288

 Memory used in sort:      16.56 MW

 SORT1 READ   366115963. AND WROTE    49490720. INTEGRALS IN    150 RECORDS. CPU TIME:     0.69 SEC, REAL TIME:     0.95 SEC
 SORT2 READ    49490720. AND WROTE   284924256. INTEGRALS IN   1497 RECORDS. CPU TIME:     1.42 SEC, REAL TIME:     1.53 SEC

 FILE SIZES:   FILE 1:   424.2 MBYTE,  FILE 4:   629.2 MBYTE,   TOTAL:   1053.4 MBYTE

 OPERATOR DM      FOR CENTER  0  COORDINATES:    0.000000    0.000000    0.000000


 **********************************************************************************************************************************
 DATASETS  * FILE   NREC   LENGTH (MB)   RECORD NAMES
              1      19      281.25       500      610      700      900      950      970     1000      129      960     1100   
                                          VAR    BASINP    GEOM    SYMINP    ZMAT    AOBASIS   BASIS     P2S    ABASIS      S 
                                         1400     1410     1200     1210     1080     1600     1650     1300     1700   
                                           T        V       H0       H01     AOSYM     SMH    MOLCAS    ERIS     OPER   

 PROGRAMS   *        TOTAL       INT
 CPU TIMES  *        26.83     26.74
 REAL TIME  *        10.90 SEC
 DISK USED  *      1005.02 MB
 **********************************************************************************************************************************


 Program * Restricted Hartree-Fock

 Orbital guess generated from atomic densities. Full valence occupancy:   10

 Initial occupancy:   7

 NELEC=   14   SYM=1   MS2= 0   THRE=1.0D-08   THRD=3.2D-06   THRG=3.2D-06  HFMA2=F  DIIS_START=2   DIIS_MAX=10   DIIS_INCORE=F

 Level shifts:    0.00 (CLOSED)    0.00 (OPEN)    0.30 (GAP_MIN)

 ITER           ETOT              DE          GRAD        DDIFF     DIIS  NEXP   TIME(IT)  TIME(TOT)  DIAG
   1     -112.76795675    -112.76795675     0.00D+00     0.32D-01     0     0       9.91     18.74    start
   2     -112.78055019      -0.01259344     0.41D-02     0.32D-02     1     0       8.87     27.61    diag
   3     -112.78847570      -0.00792551     0.28D-02     0.14D-02     2     0       9.25     36.86    diag
   4     -112.78878588      -0.00031018     0.55D-03     0.26D-03     3     0       9.51     46.37    diag
   5     -112.78880415      -0.00001827     0.84D-04     0.75D-04     4     0       9.82     56.19    diag
   6     -112.78880533      -0.00000118     0.18D-04     0.22D-04     5     0       8.93     65.12    diag
   7     -112.78880535      -0.00000002     0.31D-05     0.30D-05     6     0       9.38     74.50    diag
   8     -112.78880535      -0.00000000     0.65D-06     0.71D-06     7     0       9.29     83.79    fixocc
   9     -112.78880535      -0.00000000     0.15D-06     0.11D-06     0     0       9.38     93.17    diag

 Final occupancy:   7

 !RHF STATE 1.1 Energy               -112.788805354319
  RHF One-electron energy            -198.109931088697
  RHF Two-electron energy              62.870616521593
  RHF Kinetic energy                  112.620750919155
  RHF Nuclear energy                   22.450509212784
  RHF Virial quotient                  -1.001492215545

 !RHF STATE 1.1 Dipole moment           0.00000000     0.00000000    -0.11060935
 Dipole moment /Debye                   0.00000000     0.00000000    -0.28114091

 Orbital energies:

           1.1          2.1          3.1          4.1          5.1          6.1          7.1          8.1          9.1
    -20.665343   -11.361789    -1.519564    -0.804372    -0.638976    -0.638976    -0.555320     0.060117     0.062689


 HOMO      7.1    -0.555320 =     -15.1110eV
 LUMO      8.1     0.060117 =       1.6359eV
 LUMO-HOMO         0.615437 =      16.7469eV

 Orbitals saved in record  2100.2


 **********************************************************************************************************************************
 DATASETS  * FILE   NREC   LENGTH (MB)   RECORD NAMES
              1      19      281.25       500      610      700      900      950      970     1000      129      960     1100   
                                          VAR    BASINP    GEOM    SYMINP    ZMAT    AOBASIS   BASIS     P2S    ABASIS      S 
                                         1400     1410     1200     1210     1080     1600     1650     1300     1700   
                                           T        V       H0       H01     AOSYM     SMH    MOLCAS    ERIS     OPER   

              2       4        1.15       700     1000      520     2100   
                                         GEOM     BASIS   MCVARS     RHF  

 PROGRAMS   *        TOTAL    HF-SCF       INT
 CPU TIMES  *       120.01     93.17     26.74
 REAL TIME  *        28.66 SEC
 DISK USED  *      1005.02 MB
 **********************************************************************************************************************************

 Basis set:    OEP
 Basis size:   144
 Sphericals:   T

 PROGRAM * CCSD (Closed-shell coupled cluster)     Authors: C. Hampel, H.-J. Werner, 1991, M. Deegan, P.J. Knowles, 1992


 Convergence thresholds:  THRVAR = 1.00D-08  THRDEN = 1.00D-06

 Using ITF CCSD gradient implementation

 Number of closed-shell orbitals:   7 (   7 )
 Number of external orbitals:     211 ( 211 )

 Molecular orbitals read from record     2100.2  Type=RHF/CANONICAL  

 Integral transformation finished. Total CPU: 765.47 sec, npass=  1  Memory used:  44.90 MW
  Reference energy                   -112.788805354319

  MP2 correlation energy               -0.496102295169
  MP2 total energy                   -113.284907649488

 ITER.      SQ.NORM     CORR.ENERGY   TOTAL ENERGY   ENERGY CHANGE        DEN1      VAR(S)    VAR(P)  DIIS     TIME
   1      1.10311951    -0.49783861  -113.28664397    -0.00173632     0.01425802  4.43e-03  3.01e-03  1  1    61.34
   2      1.11401274    -0.49688105  -113.28568641     0.00095756    -0.01357806  7.70e-05  5.69e-04  2  2   122.88
   3      1.11658752    -0.49683493  -113.28564028     0.00004613     0.00037116  2.37e-05  6.26e-05  3  3   184.55
   4      1.11856797    -0.49677655  -113.28558191     0.00005837    -0.00112548  8.53e-07  1.52e-05  4  4   244.64
   5      1.11961135    -0.49670634  -113.28551169     0.00007022    -0.00039175  1.14e-08  1.56e-06  5  5   306.68
   6      1.11994028    -0.49668873  -113.28549408     0.00001761    -0.00010904  2.84e-09  5.07e-08  6  0   367.96
   7      1.11996137    -0.49668783  -113.28549318     0.00000090    -0.00000928  4.02e-10  1.92e-09         427.66
 WARNING: Named clock 3265 does not exist. Cannot pop it.

 Norm of t1 vector:      0.08182994     S-energy:      0.00000080   T1 diagnostic:  0.01546440

 Time per iteration:                     61.10 sec

 RESULTS
 =======

  Reference energy                   -112.788805354319
  CCSD correlation energy              -0.496687825786
 !CCSD total energy                  -113.285493180105

 Starting CP-CCSD iterations.   Author: W. Gyorffy (2012)

 ITER.      NRM1           NRM2      VAR(S)+VAR(P)   DIIS    TIME
   1     0.00352043     0.32838495     1.56e-03      1  1   65.08
   2     0.00320637     0.32087346     2.04e-04      2  2  129.21
   3     0.00289719     0.32115182     2.88e-05      3  3  190.56
   4     0.00272512     0.32019924     5.99e-06      4  4  255.86
   5     0.00261303     0.32007136     5.47e-07      5  5  320.97
   6     0.00256887     0.31999655     4.15e-08      6  0  387.38
   7     0.00255538     0.31999345     3.38e-09            453.11

 WARNING: Named clock 3265 does not exist. Cannot pop it.

 Time per iteration:                     64.73 sec


 Starting Coupled-perturbed Hartree-Fock, convergence threshold= 1.0D-06

 ITER  FOCK  DIIS      VAR         VARC       CPU
   1     0     1    0.25D-01    0.00D+00     0.00
   2     1     1    0.99D-02    0.00D+00    10.01
   3     1     2    0.27D-02    0.00D+00    20.21
   4     1     3    0.81D-03    0.00D+00    30.10
   5     1     4    0.13D-03    0.00D+00    40.57
   6     1     5    0.29D-04    0.00D+00    50.47
   7     1     6    0.58D-05    0.00D+00    61.36
   8     1     6    0.10D-05    0.00D+00    71.36

 CPHF convergence reached in  7 macroiterations and    0 microiterations.   Accuracy: 9.9554D-07

 CPHF solution written to record  8500.2

 Dipole moments (unrelaxed):           -0.00000000    -0.00000000     0.04634257
 Orbital relaxation contribution:       0.00000000     0.00000000    -0.02712250
 !CCSD STATE 1.1 Dipole moment          0.00000000     0.00000000     0.01922006
 Dipole moment /Debye                   0.00000000     0.00000000     0.04885253

 CPU-time for coupled-perturbed hartree-fock:         73.10 sec

 CCSD density matrix saved on record      1325.1 (density set 2, unrelaxed)

 CCSD density matrix saved on record      1325.1 (density set 3)




 **********************************************************************************************************************************
 DATASETS  * FILE   NREC   LENGTH (MB)   RECORD NAMES
              1      21      550.45       500      610      700      900      950      970     1000      129      960     1100   
                                          VAR    BASINP    GEOM    SYMINP    ZMAT    AOBASIS   BASIS     P2S    ABASIS      S 
                                         1400     1410     1200     1210     1080     1600     1650     1300     1700     1380   
                                           T        V       H0       H01     AOSYM     SMH    MOLCAS    ERIS     OPER     JKOP   
                                         1325   
                                         CCSD   

              2       5        2.42       700     1000      520     2100     8500   
                                         GEOM     BASIS   MCVARS     RHF     CPHF   

 PROGRAMS   *        TOTAL      CCSD    HF-SCF       INT
 CPU TIMES  *      2486.32   2366.29     93.17     26.74
 REAL TIME  *       452.28 SEC
 DISK USED  *         1.44 GB
 **********************************************************************************************************************************
 SETTING E_REF_CCSD     =      -113.28549318  AU                              


 PROGRAM * MATROP


 Density DEN read from record            1325.1  Type=CCSD/CHARGE (state 1.1)

 Charge density  DEN saved in record 1325.1 (set 1)


 **********************************************************************************************************************************
 DATASETS  * FILE   NREC   LENGTH (MB)   RECORD NAMES
              1      21      550.45       500      610      700      900      950      970     1000      129      960     1100   
                                          VAR    BASINP    GEOM    SYMINP    ZMAT    AOBASIS   BASIS     P2S    ABASIS      S 
                                         1400     1410     1200     1210     1080     1600     1650     1300     1700     1380   
                                           T        V       H0       H01     AOSYM     SMH    MOLCAS    ERIS     OPER     JKOP   
                                         1325   
                                        MATROP    

              2       5        2.42       700     1000      520     2100     8500   
                                         GEOM     BASIS   MCVARS     RHF     CPHF   

 PROGRAMS   *        TOTAL    MATROP      CCSD    HF-SCF       INT
 CPU TIMES  *      2486.32      0.00   2366.29     93.17     26.74
 REAL TIME  *       452.28 SEC
 DISK USED  *         1.44 GB
 **********************************************************************************************************************************

 Basis set:    OEP
 Basis size:   144
 Sphericals:   T

 PROGRAM * KSINV     (Kohn-Sham Inversion)
 Authors: J. Erhard, E. Trushin

 Read Reference Density from 1325.1
 Read Orbital Records from 2100.2
 Write Orbital Records to 2101.2
 Reference energy:     -113.285493180105
 Threshold for inversion convergence:     1.000E-10
 Maximum number of iterations:  30
 Minimum number of iterations:   3
 mixing_a:    1.000E-01
 mix_switch_iter:   3
 Use backfiltering: T
 Thresholds for processing of OEP basis set:
 thr_symmetry:   0.000E+00
 thr_overlap_oep:     1.000E-99
 thr_fai_oep:     1.700E-02
 Fermi-Amaldi as reference potential: T
 Threshold for eigenvalue difference in calculation of Lambda:    1.000E-06
 Threshold for eigenproblem solver of OEP equation:    1.000E-99
 Solver for eigenproblems: GTSVD

 Density matrix read from record         1325.1  Type=MATROP/CHARGE (state 1.1)
 Occupation numbers read from record     2100.2  Type=RHF/RHF  

   ITER        ENERGY             |t|          TIME
     0                                          2.22
     1      -94.6629142923     0.863E+00        4.34
     2      -96.5267629661     0.776E+00        6.50
     3      -98.2315717546     0.697E+00        8.68
     4      -99.7347789618     0.627E+00       10.82
     5     -101.5155915699     0.545E+00       12.96
     6     -103.6398227592     0.446E+00       15.10
     7     -106.1420437875     0.330E+00       17.26
     8     -108.9034465845     0.203E+00       19.39
     9     -111.4172813816     0.867E-01       21.54
    10     -112.8753759218     0.186E-01       23.70
    11     -113.2213133854     0.412E-02       25.84
    12     -113.2487775029     0.239E-03       27.97
    13     -113.2514723594     0.154E-03       30.23
    14     -113.2517643235     0.958E-05       32.39
    15     -113.2518212775     0.623E-05       34.56
    16     -113.2518237718     0.670E-06       36.72
    17     -113.2518256107     0.271E-06       38.87
    18     -113.2518254538     0.405E-07       41.00
    19     -113.2518255345     0.125E-07       43.14
    20     -113.2518255197     0.223E-08       45.29
    21     -113.2518255238     0.592E-09       47.45
    22     -113.2518255229     0.117E-09       49.60
    23     -113.2518255231     0.283E-10       52.25

 Diff E_x:       0.115223663697
 Diff E_H:       0.008326884370
 Diff E_kin:     0.396852871053
 Diff E_ext:    -0.033667656991

 SCF converged in    23 iterations

 KSINV orbitals written to record    2101.2
 
 !KSINV Total energy                 -113.251825523114
  KSINV One-electron energy          -198.237287460853
  KSINV Two-electron energy            63.010175326032
  KSINV Nuclear energy                 22.450509212784
  KSINV Coulomb energy                 76.317979288037
  KSINV Exchange energy               -13.307803962005
  KSINV Correlation energy             -0.475222601077
 
 !KSINV Dipole moment                  -0.00000000     0.00000000     0.01790663
 Dipole moment /Debye                  -0.00000000     0.00000000     0.04551412

 KSINV eigenvalues
   1-  10  -0.19035E+02 -0.10194E+02 -0.12317E+01 -0.66886E+00 -0.57931E+00 -0.57931E+00 -0.47436E+00 -0.20798E+00 -0.20798E+00 -0.11438E+00
  11-  17  -0.80532E-01 -0.79584E-01 -0.79584E-01 -0.21508E-01 -0.71276E-02 -0.71276E-02  0.23920E-01

 LUMO-HOMO:  0.26638E+00


 **********************************************************************************************************************************
 DATASETS  * FILE   NREC   LENGTH (MB)   RECORD NAMES
              1      21      550.45       500      610      700      900      950      970     1000      129      960     1100   
                                          VAR    BASINP    GEOM    SYMINP    ZMAT    AOBASIS   BASIS     P2S    ABASIS      S 
                                         1400     1410     1200     1210     1080     1600     1650     1300     1700     1380   
                                           T        V       H0       H01     AOSYM     SMH    MOLCAS    ERIS     OPER     JKOP   
                                         1325   
                                        MATROP    

              2       6        3.07       700     1000      520     2100     8500     2101   
                                         GEOM     BASIS   MCVARS     RHF     CPHF     KSINV   

 PROGRAMS   *        TOTAL      ACFD    MATROP      CCSD    HF-SCF       INT
 CPU TIMES  *      2765.54    279.23      0.00   2366.29     93.17     26.74
 REAL TIME  *       504.54 SEC
 DISK USED  *         1.44 GB
 **********************************************************************************************************************************

 ACFD/aug-cc-pWCVQZ energy=   -113.251825523114

            ACFD            CCSD          HF-SCF
   -113.25182552   -113.28549318   -112.78880535
 **********************************************************************************************************************************
 Molpro calculation terminated
