
 Working directory              : /tmp/trushin/molpro.r7PWIw7R3C/
 Global scratch directory       : /tmp/trushin/molpro.r7PWIw7R3C/
 Wavefunction directory         : /home/trushin/wfu/
 Main file repository           : /tmp/trushin/molpro.r7PWIw7R3C/

 id        : chemie

 Nodes         nprocs
 trushin-laptop    1
 GA implementation: MPI file
 GA implementation (serial work in mppx): MPI file

 Using customized tuning parameters: mindgm=1; mindgv=20; mindgc=4; mindgr=1; noblas=0; minvec=7
 default implementation of scratch files=df  


 Variables initialized (1064), CPU time= 0.00 sec
                                                                                 ! First part without density fitting and gdirect
 basis={
 default,aug-cc-pwCVTZ                                                           ! orbital basis
 set,oep;default,aug-cc-pVDZ/mp2fit                                              ! OEP basis
 set,dfit;default,aug-cc-pwCV5Z/mp2fit
 }
 
 symmetry,nosym                                                                  ! KSINV does not use symmetry
 
 angstrom
 geometry={
 2
 C        0.000000    0.000000   -0.646514
 O        0.000000    0.000000    0.484886
 }
 
 hf,maxit=30                                                                     ! HF calculations
 
 {CCSD;core;dm,1325.1}                                                           ! reference CCSD calculation
 e_ref_ccsd=energy                                                               ! save energy to provide as a reference to KSINV
 
                                                                     ! Save relaxed density to the first record - required by KSINV
 {matrop;load,den,den,1325.1;save,den,1325.1}
 
 
                                                                                 ! Second parth with density fitting and gdirect
 gdirect
 
 df-hf,maxit=0,df_basis=dfit                                                     ! HF calculation with 0 iterations
 {cfit,basis_coul=dfit,basis_exch=dfit}
 
 acfd;ksinv,refden=1325.1,orb=2101.2,e_ref=e_ref_ccsd,thr_fai_oep=5d-2,dfit=1,\
 plot_vx=1,plot_vc=1,plot_vxc=1,plot_vref=1,plot_z=1
 Commands initialized (839), CPU time= 0.01 sec, 728 directives.
 Default parameters read. Elapsed time= 0.05 sec

 Checking input...
 Passed
1


                                         ***  PROGRAM SYSTEM MOLPRO  ***
                                       Copyright, TTI GmbH Stuttgart, 2015
                                  Version 2025.3 linked Fri Jul 25 19:30:30 2025


 **********************************************************************************************************************************
 LABEL *                                                                                                                                                                 
                                                                                         DATE: 25-Jul-25          TIME: 22:32:37  
 **********************************************************************************************************************************

 SHA1:             75e8eeae7fb56d6b934318e4f3baafa252b7f4c8
 **********************************************************************************************************************************

 Memory per process:      2000 MW
 Total memory per node:   2000 MW

 GA preallocation disabled
 GA check disabled

 Variable memory set to 2000.0 MW

 SETTING BASIS          =    AUG-CC-PWCVTZ

 ZSYMEL=NOSYM


 Geometry recognized as XYZ



 Recomputing integrals since basis changed


 Using spherical harmonics

 Library entry C      S aug-cc-pwCVTZ        selected for orbital group  1
 Library entry C      P aug-cc-pwCVTZ        selected for orbital group  1
 Library entry C      D aug-cc-pwCVTZ        selected for orbital group  1
 Library entry C      F aug-cc-pwCVTZ        selected for orbital group  1
 Library entry O      S aug-cc-pwCVTZ        selected for orbital group  2
 Library entry O      P aug-cc-pwCVTZ        selected for orbital group  2
 Library entry O      D aug-cc-pwCVTZ        selected for orbital group  2
 Library entry O      F aug-cc-pwCVTZ        selected for orbital group  2


 PROGRAM * SEWARD (Integral evaluation for generally contracted gaussian basis sets)     Author: Roland Lindh, 1990

 Geometry written to block  1 of record 700


 Point group  C1  



 ATOMIC COORDINATES

 NR  ATOM    CHARGE       X              Y              Z

   1  C       6.00    0.000000000    0.000000000   -1.221734396
   2  O       8.00    0.000000000    0.000000000    0.916301742

 Bond lengths in Bohr (Angstrom)

 1-2  2.138036137
     ( 1.131400000)

 NUCLEAR CHARGE:                   14
 NUMBER OF PRIMITIVE AOS:         162
 NUMBER OF SYMMETRY AOS:          142
 NUMBER OF CONTRACTIONS:          118   (  118A   )
 NUMBER OF INNER CORE ORBITALS:     0   (    0A   )
 NUMBER OF OUTER CORE ORBITALS:     2   (    2A   )
 NUMBER OF VALENCE ORBITALS:        8   (    8A   )


 NUCLEAR REPULSION ENERGY 22.45050921


 Basis set: OEP
 Default basis aug-cc-pVDZ/MP2FIT selected for C
 Default basis aug-cc-pVDZ/MP2FIT selected for O
 Basis size: 144
 Basis set: DFIT
 Default basis aug-cc-pwCV5Z/MP2FIT selected for C
 Default basis aug-cc-pwCV5Z/MP2FIT selected for O
 Basis size: 656

 **********************************************************************************************************************************

 EXTRA SYMMETRY OF AOS IN SYMMETRY 1:   1 1 1 1 1 1 1 2 3 1   2 3 1 2 3 1 2 3 1 2   3 1 2 3 1 1 4 2 5 3   1 4 2 5 3 1 4 2 5 3
                                        1 4 2 5 3 2 3 1 6 4   7 5 2 3 1 6 4 7 5 1   1 1 1 1 1 1 2 3 1 2   3 1 2 3 1 2 3 1 2 3
                                        1 2 3 1 1 4 2 5 3 1   4 2 5 3 1 4 2 5 3 1   4 2 5 3 2 3 1 6 4 7   5 2 3 1 6 4 7 5

 Eigenvalues of metric

         1 0.324E-03 0.776E-03 0.119E-02 0.285E-02 0.285E-02 0.449E-02 0.592E-02 0.134E-01


 Contracted 2-electron integrals neglected if value below      1.0D-11
 AO integral compression algorithm  1   Integral accuracy      1.0D-11

     37.749 MB (compressed) written to integral file ( 13.9%)


 NUMBER OF SORTED TWO-ELECTRON INTEGRALS:   24650731.     BUFFER LENGTH:  32768
 NUMBER OF SEGMENTS:   2  SEGMENT LENGTH:   15997996      RECORD LENGTH: 524288

 Memory used in sort:      16.56 MW

 SORT1 READ    33852459. AND WROTE     4825692. INTEGRALS IN     15 RECORDS. CPU TIME:     0.13 SEC, REAL TIME:     0.13 SEC
 SORT2 READ     4825692. AND WROTE    24650731. INTEGRALS IN    144 RECORDS. CPU TIME:     0.22 SEC, REAL TIME:     0.22 SEC

 FILE SIZES:   FILE 1:    68.7 MBYTE,  FILE 4:    63.0 MBYTE,   TOTAL:    131.7 MBYTE

 OPERATOR DM      FOR CENTER  0  COORDINATES:    0.000000    0.000000    0.000000


 **********************************************************************************************************************************
 DATASETS  * FILE   NREC   LENGTH (MB)   RECORD NAMES
              1      19       52.58       500      610      700      900      950      970     1000      129      960     1100   
                                          VAR    BASINP    GEOM    SYMINP    ZMAT    AOBASIS   BASIS     P2S    ABASIS      S 
                                         1400     1410     1200     1210     1080     1600     1650     1300     1700   
                                           T        V       H0       H01     AOSYM     SMH    MOLCAS    ERIS     OPER   

 PROGRAMS   *        TOTAL       INT
 CPU TIMES  *         2.71      2.61
 REAL TIME  *         2.72 SEC
 DISK USED  *       125.97 MB
 **********************************************************************************************************************************


 Program * Restricted Hartree-Fock

 Generating basis MINAO
  Atom=C        basis=MINAO
  Atom=O        basis=MINAO
 Number of basis functions:      10

 Orbital guess generated from atomic densities.

 Initial occupancy:   7

 NELEC=   14   SYM=1   MS2= 0   THRE=1.0D-08   THRD=3.2D-06   THRG=3.2D-06  HFMA2=F  DIIS_START=2   DIIS_MAX=10   DIIS_INCORE=F

 Level shifts:    0.00 (CLOSED)    0.00 (OPEN)    0.30 (GAP_MIN)

 ITER           ETOT              DE          GRAD        DDIFF     DIIS  NEXP   TIME(IT)  TIME(TOT)  DIAG
   1     -112.76121064    -112.76121064     0.00D+00     0.58D-01     0     0       0.13      0.25    start
   2     -112.77390265      -0.01269201     0.57D-02     0.65D-02     1     0       0.13      0.38    diag
   3     -112.78158504      -0.00768239     0.38D-02     0.26D-02     2     0       0.12      0.50    diag
   4     -112.78189936      -0.00031432     0.76D-03     0.53D-03     3     0       0.13      0.63    diag
   5     -112.78191805      -0.00001869     0.12D-03     0.16D-03     4     0       0.13      0.75    diag
   6     -112.78191921      -0.00000115     0.25D-04     0.45D-04     5     0       0.12      0.88    diag
   7     -112.78191923      -0.00000002     0.42D-05     0.63D-05     6     0       0.13      1.01    diag
   8     -112.78191923      -0.00000000     0.89D-06     0.14D-05     7     0       0.13      1.13    fixocc
   9     -112.78191923      -0.00000000     0.20D-06     0.21D-06     0     0       0.12      1.25    diag

 Final occupancy:   7

 !RHF STATE 1.1 Energy               -112.781919233160
  RHF One-electron energy            -198.087277624736
  RHF Two-electron energy              62.854849178792
  RHF Kinetic energy                  112.603257699595
  RHF Nuclear energy                   22.450509212784
  RHF Virial quotient                  -1.001586646223

 !RHF STATE 1.1 Dipole moment          -0.00000000    -0.00000000    -0.11207338
 Dipole moment /Debye                  -0.00000000    -0.00000000    -0.28486212

 Orbital energies:

           1.1          2.1          3.1          4.1          5.1          6.1          7.1          8.1          9.1
    -20.667242   -11.362662    -1.520691    -0.804674    -0.639019    -0.639019    -0.555475     0.068814     0.070107


 HOMO      7.1    -0.555475 =     -15.1152eV
 LUMO      8.1     0.068814 =       1.8725eV
 LUMO-HOMO         0.624289 =      16.9878eV

 Orbitals saved in record  2100.2


 **********************************************************************************************************************************
 DATASETS  * FILE   NREC   LENGTH (MB)   RECORD NAMES
              1      19       52.58       500      610      700      900      950      970     1000      129      960     1100   
                                          VAR    BASINP    GEOM    SYMINP    ZMAT    AOBASIS   BASIS     P2S    ABASIS      S 
                                         1400     1410     1200     1210     1080     1600     1650     1300     1700   
                                           T        V       H0       H01     AOSYM     SMH    MOLCAS    ERIS     OPER   

              2       4        0.62       700     1000      520     2100   
                                         GEOM     BASIS   MCVARS     RHF  

 PROGRAMS   *        TOTAL    HF-SCF       INT
 CPU TIMES  *         3.97      1.25      2.61
 REAL TIME  *         3.98 SEC
 DISK USED  *       125.97 MB
 **********************************************************************************************************************************

 Basis set: OEP
 Default basis aug-cc-pVDZ/MP2FIT selected for C
 Default basis aug-cc-pVDZ/MP2FIT selected for O
 Basis size: 144
 Basis set: DFIT
 Default basis aug-cc-pwCV5Z/MP2FIT selected for C
 Default basis aug-cc-pwCV5Z/MP2FIT selected for O
 Basis size: 656

 PROGRAM * CCSD (Closed-shell coupled cluster)     Authors: C. Hampel, H.-J. Werner, 1991, M. Deegan, P.J. Knowles, 1992


 Convergence thresholds:  THRVAR = 1.00D-08  THRDEN = 1.00D-06

 Using ITF CCSD gradient implementation

 Number of closed-shell orbitals:   7 (   7 )
 Number of external orbitals:     111 ( 111 )

 Molecular orbitals read from record     2100.2  Type=RHF/CANONICAL (state 1.1)

 Integral transformation finished. Total CPU:   2.67 sec, npass=  1  Memory used:   7.59 MW
  Reference energy                   -112.781919233160

  MP2 correlation energy               -0.464780146256
  MP2 total energy                   -113.246699379416

 ITER.      SQ.NORM     CORR.ENERGY   TOTAL ENERGY   ENERGY CHANGE        DEN1      VAR(S)    VAR(P)  DIIS     TIME
   1      1.10312247    -0.47010620  -113.25202543    -0.00532605     0.01046149  4.47e-03  2.96e-03  1  1     4.70
   2      1.11418569    -0.46927895  -113.25119818     0.00082725    -0.01324650  6.99e-05  5.67e-04  2  2     9.56
   3      1.11697084    -0.46925942  -113.25117865     0.00001953     0.00010476  2.29e-05  6.42e-05  3  3    14.35
   4      1.11899403    -0.46919467  -113.25111390     0.00006475    -0.00114423  7.02e-07  1.56e-05  4  4    19.14
   5      1.12013190    -0.46912176  -113.25104100     0.00007291    -0.00041450  1.91e-08  1.12e-06  5  5    23.92
   6      1.12037522    -0.46910853  -113.25102777     0.00001323    -0.00007777  5.61e-09  4.71e-08  6  0    28.72
   7      1.12039296    -0.46910904  -113.25102827    -0.00000051    -0.00001079  2.08e-10  2.31e-09          33.53

 Norm of t1 vector:      0.08323108     S-energy:      0.00000075   T1 diagnostic:  0.01572920

 Time per iteration:                      4.79 sec

 RESULTS
 =======

  Reference energy                   -112.781919233160
  CCSD correlation energy              -0.469109041402
 !CCSD total energy                  -113.251028274562

 Starting CP-CCSD iterations.   Author: W. Gyorffy (2012)

 ITER.      NRM1           NRM2      VAR(S)+VAR(P)   DIIS    TIME
   1     0.00361642     0.32801586     1.63e-03      1  1    6.12
   2     0.00330361     0.32009927     2.16e-04      2  2   12.20
   3     0.00298675     0.32036474     2.99e-05      3  3   18.29
   4     0.00280402     0.31939677     6.07e-06      4  4   24.37
   5     0.00268768     0.31926251     5.30e-07      5  5   30.47
   6     0.00264313     0.31918937     3.97e-08      6  0   36.61
   7     0.00262985     0.31918745     3.33e-09             42.69


 Time per iteration:                      6.10 sec


 Starting Coupled-perturbed Hartree-Fock, convergence threshold= 1.0D-06

 ITER  FOCK  DIIS      VAR         VARC       CPU
   1     0     1    0.26D-01    0.00D+00     0.00
   2     1     1    0.10D-01    0.00D+00     0.12
   3     1     2    0.27D-02    0.00D+00     0.24
   4     1     3    0.80D-03    0.00D+00     0.37
   5     1     4    0.13D-03    0.00D+00     0.49
   6     1     5    0.29D-04    0.00D+00     0.61
   7     1     6    0.58D-05    0.00D+00     0.74
   8     1     6    0.98D-06    0.00D+00     0.86

 CPHF convergence reached in  7 macroiterations and    0 microiterations.   Accuracy: 9.7891D-07

 CPHF solution written to record  8500.2

 Dipole moments (unrelaxed):            0.00000000    -0.00000000     0.05008257
 Orbital relaxation contribution:      -0.00000000    -0.00000000    -0.02775689
 !CCSD STATE 1.1 Dipole moment         -0.00000000    -0.00000000     0.02232568
 Dipole moment /Debye                  -0.00000000    -0.00000000     0.05674621

 CPU-time for coupled-perturbed hartree-fock:          0.86 sec

 CCSD density matrix saved on record      1325.1 (density set 2, unrelaxed)

 CCSD density matrix saved on record      1325.1 (density set 3)




 **********************************************************************************************************************************
 DATASETS  * FILE   NREC   LENGTH (MB)   RECORD NAMES
              1      21       94.54       500      610      700      900      950      970     1000      129      960     1100   
                                          VAR    BASINP    GEOM    SYMINP    ZMAT    AOBASIS   BASIS     P2S    ABASIS      S 
                                         1400     1410     1200     1210     1080     1600     1650     1300     1700     1380   
                                           T        V       H0       H01     AOSYM     SMH    MOLCAS    ERIS     OPER     JKOP   
                                         1325   
                                         CCSD   

              2       5        0.99       700     1000      520     2100     8500   
                                         GEOM     BASIS   MCVARS     RHF     CPHF   

 PROGRAMS   *        TOTAL      CCSD    HF-SCF       INT
 CPU TIMES  *       109.91    105.93      1.25      2.61
 REAL TIME  *       107.65 SEC
 DISK USED  *       355.11 MB
 **********************************************************************************************************************************
 E_REF_CCSD      =    -113.25102827  AU                              


 PROGRAM * MATROP


 Density DEN read from record            1325.1  Type=CCSD/CHARGE (state 1.1)

 Charge density  DEN saved in record 1325.1 (set 1)


 **********************************************************************************************************************************
 DATASETS  * FILE   NREC   LENGTH (MB)   RECORD NAMES
              1      21       94.54       500      610      700      900      950      970     1000      129      960     1100   
                                          VAR    BASINP    GEOM    SYMINP    ZMAT    AOBASIS   BASIS     P2S    ABASIS      S 
                                         1400     1410     1200     1210     1080     1600     1650     1300     1700     1380   
                                           T        V       H0       H01     AOSYM     SMH    MOLCAS    ERIS     OPER     JKOP   
                                         1325   
                                        MATROP    

              2       5        0.99       700     1000      520     2100     8500   
                                         GEOM     BASIS   MCVARS     RHF     CPHF   

 PROGRAMS   *        TOTAL    MATROP      CCSD    HF-SCF       INT
 CPU TIMES  *       109.91      0.00    105.93      1.25      2.61
 REAL TIME  *       107.66 SEC
 DISK USED  *       355.11 MB
 **********************************************************************************************************************************

 Basis set: OEP
 Default basis aug-cc-pVDZ/MP2FIT selected for C
 Default basis aug-cc-pVDZ/MP2FIT selected for O
 Basis size: 144
 Basis set: DFIT
 Default basis aug-cc-pwCV5Z/MP2FIT selected for C
 Default basis aug-cc-pwCV5Z/MP2FIT selected for O
 Basis size: 656

 Program * Restricted Hartree-Fock


 Coulomb and exchange fitting
 Thresholds for fitting:       THRAO_COUL= 1.0D-15    THRAO_EXCH= 1.0D-13    THRMO= 1.0D-12    THRPROD= 1.0D-12    THRASM= 1.0D-12
                               THR2HLF=    1.0D-12

 Basis set DFIT loaded. Number of basis functions: 656

 Molecular orbitals read from record     2100.2  Type=RHF/CANONICAL (state 1.1)

 Initial occupancy:   7

 NELEC=   14   SYM=1   MS2= 0   THRE=1.0D-08   THRD=3.2D-06   THRG=3.2D-06  HFMA2=F  DIIS_START=2   DIIS_MAX=10   DIIS_INCORE=F

 Level shifts:    0.00 (CLOSED)    0.00 (OPEN)    0.30 (GAP_MIN)

 ITER           ETOT              DE          GRAD        DDIFF     DIIS  NEXP   TIME(IT)  TIME(TOT)  DIAG
   1     -112.78191975    -112.78191975     0.00D+00     0.59D-01     0     0       0.19      0.22    start

 Orbitals not optimized (maxit=1)

 Final occupancy:   7

 !RHF STATE 1.1 Energy               -112.781919749346
  RHF One-electron energy            -198.087277624736
  RHF Two-electron energy              62.854848662605
  RHF Kinetic energy                  112.603257699595
  RHF Nuclear energy                   22.450509212784
  RHF Virial quotient                  -1.001586650807

 !RHF STATE 1.1 Dipole moment          -0.00000000    -0.00000000    -0.11207338
 Dipole moment /Debye                  -0.00000000    -0.00000000    -0.28486212

 Orbital energies:

           1.1          2.1          3.1          4.1          5.1          6.1          7.1          8.1          9.1
    -20.667248   -11.362659    -1.520692    -0.804676    -0.639021    -0.639021    -0.555474     0.068812     0.070110


 HOMO      7.1    -0.555474 =     -15.1152eV
 LUMO      8.1     0.068812 =       1.8725eV
 LUMO-HOMO         0.624286 =      16.9877eV

 Orbitals saved in record  2101.2


 **********************************************************************************************************************************
 DATASETS  * FILE   NREC   LENGTH (MB)   RECORD NAMES
              1      21       94.54       500      610      700      900      950      970     1000      129      960     1100   
                                          VAR    BASINP    GEOM    SYMINP    ZMAT    AOBASIS   BASIS     P2S    ABASIS      S 
                                         1400     1410     1200     1210     1080     1600     1650     1300     1700     1380   
                                           T        V       H0       H01     AOSYM     SMH    MOLCAS    ERIS     OPER     JKOP   
                                         1325   
                                        MATROP    

              2       6        1.31       700     1000      520     2100     8500     2101   
                                         GEOM     BASIS   MCVARS     RHF     CPHF      RHF  

 PROGRAMS   *        TOTAL     DF-HF    MATROP      CCSD    HF-SCF       INT
 CPU TIMES  *       110.15      0.24      0.00    105.93      1.25      2.61
 REAL TIME  *       107.89 SEC
 DISK USED  *       355.11 MB
 **********************************************************************************************************************************

 Basis set: OEP
 Default basis aug-cc-pVDZ/MP2FIT selected for C
 Default basis aug-cc-pVDZ/MP2FIT selected for O
 Basis size: 144
 Basis set: DFIT
 Default basis aug-cc-pwCV5Z/MP2FIT selected for C
 Default basis aug-cc-pwCV5Z/MP2FIT selected for O
 Basis size: 656

 PROGRAM * KSINV     (Kohn-Sham Inversion)
 Authors: J. Erhard, E. Trushin

 Read Reference Density from 1325.1
 Read Orbital Records from 2101.2
 Write Orbital Records to 2101.2
 Reference energy:     -113.251028274562
 Use density fitting: T
 Threshold for inversion convergence:     1.000E-10
 Maximum number of iterations:  30
 Minimum number of iterations:   3
 mixing_a:    1.000E-01
 mix_switch_iter:   3
 Use backfiltering: T
 Use one reference potential for both spin channels: F
 Thresholds for processing of OEP basis set:
 thr_symmetry:   0.000E+00
 thr_overlap_oep:     1.000E-99
 thr_fai_oep:     5.000E-02
 Fermi-Amaldi as reference potential: T
 Space-symmetrization: F
 Construct the Hartree potential in the OEP basis: F
 HOMO condition: F
 Threshold for eigenvalue difference in calculation of Lambda:    1.000E-06
 Threshold for eigenproblem solver of OEP equation:    1.000E-99
 Solver for eigenproblems: GTSVD
 Plotting parameters:
 l_plot_always: F
 l_plot_vc: T
 l_plot_vx: T
 l_plot_vxc: T
 l_plot_vref: T
 l_plot_rho_ks: F
 l_plot_rho_ref: F
 l_plot_rho_diff: F
 l_plot_x_line: F
 l_plot_y_line: F
 l_plot_z_line: T
 l_plot_xy_plane: F
 l_plot_yz_plane: F
 l_plot_xz_plane: F
 i_gridsize:  2048
 r0_plot_range:     20.0000

 Density matrix read from record         1325.1  Type=MATROP/CHARGE (state 1.1)
 Occupation numbers read from record     2101.2  Type=RHF/RHF (state 1.1)

   ITER        ENERGY             |t|          TIME
     0                                          0.36
     1      -94.8214541496     0.845E+00        0.90
     2      -96.6760354882     0.760E+00        1.43
     3      -98.3413853724     0.684E+00        1.97
     4      -99.8375089025     0.615E+00        2.50
     5     -101.6099563987     0.534E+00        3.03
     6     -103.7237826639     0.437E+00        3.56
     7     -106.2135767375     0.323E+00        4.09
     8     -108.9613543653     0.198E+00        4.63
     9     -111.4581805233     0.839E-01        5.17
    10     -112.8850187706     0.184E-01        5.71
    11     -113.2180195852     0.343E-02        6.24
    12     -113.2528608464     0.861E-03        6.77
    13     -113.2591869341     0.207E-03        7.30
    14     -113.2603946300     0.519E-04        7.84
    15     -113.2607100065     0.118E-04        8.37
    16     -113.2607678236     0.310E-05        8.90
    17     -113.2607855954     0.630E-06        9.43
    18     -113.2607882561     0.190E-06        9.96
    19     -113.2607893664     0.304E-07       10.49
    20     -113.2607894595     0.125E-07       11.03
    21     -113.2607895388     0.106E-08       11.56
    22     -113.2607895375     0.929E-09       12.09
    23     -113.2607895441     0.236E-10       12.68

 SCF converged in    23 iterations

 KSINV orbitals written to record    2101.2
 
 !KSINV Total energy                 -113.260789544130
  KSINV One-electron energy          -198.171544297819
  KSINV Two-electron energy            62.952715364713
  KSINV Nuclear energy                 22.450509212784
  KSINV Coulomb energy                 76.250219203821
  KSINV Exchange energy               -13.297503839108
  KSINV Correlation energy             -0.492469823808
  KSINV Kinetic corr. energy            0.320593376924
  KSINV Potential corr. energy         -0.813063200732
 
 !KSINV Dipole moment                  -0.00000000     0.00000000     0.02680408
 Dipole moment /Debye                  -0.00000000     0.00000000     0.06812918

 Error measures:
  KSINV KS Hartree energy              76.250219203821
  KSINV Reference Hartree energy       76.270768438641
  KSINV Hartree energy error            0.020549234820
  KSINV KS external energy           -311.003017262505
  KSINV Reference external energy    -310.993255992937
  KSINV External energy error           0.009761269567
  KSINV KS kinetic energy             112.831472964686
  KSINV Lieb functional               112.802600542694
  KSINV Lieb error                     -0.028872421992

 KSINV eigenvalues
   1-  10  -0.19060E+02 -0.10203E+02 -0.12135E+01 -0.65164E+00 -0.56332E+00 -0.56332E+00 -0.46015E+00 -0.19646E+00 -0.19646E+00 -0.11204E+00
  11-  17  -0.75056E-01 -0.75056E-01 -0.72229E-01 -0.86841E-02  0.88740E-02  0.88740E-02  0.60430E-01

 HOMO:      -0.46015E+00
 LUMO:      -0.19646E+00
 LUMO-HOMO:  0.26369E+00


 **********************************************************************************************************************************
 DATASETS  * FILE   NREC   LENGTH (MB)   RECORD NAMES
              1      21       94.54       500      610      700      900      950      970     1000      129      960     1100   
                                          VAR    BASINP    GEOM    SYMINP    ZMAT    AOBASIS   BASIS     P2S    ABASIS      S 
                                         1400     1410     1200     1210     1080     1600     1650     1300     1700     1380   
                                           T        V       H0       H01     AOSYM     SMH    MOLCAS    ERIS     OPER     JKOP   
                                         1325   
                                        MATROP    

              2       6        1.36       700     1000      520     2100     8500     2101   
                                         GEOM     BASIS   MCVARS     RHF     CPHF     KSINV   

 PROGRAMS   *        TOTAL      ACFD     DF-HF    MATROP      CCSD    HF-SCF       INT
 CPU TIMES  *       122.85     12.70      0.24      0.00    105.93      1.25      2.61
 REAL TIME  *       120.59 SEC
 DISK USED  *       355.11 MB
 **********************************************************************************************************************************

 ACFD/aug-cc-pWCVTZ energy=   -113.260789544130

            ACFD           DF-HF            CCSD          HF-SCF
   -113.26078954   -112.78191975   -113.25102827   -112.78191923
 **********************************************************************************************************************************
 Molpro calculation terminated
