
 Working directory              : /tmp/trushin/molpro.SCiTY4CrrO/
 Global scratch directory       : /tmp/trushin/molpro.SCiTY4CrrO/
 Wavefunction directory         : /home/trushin/wfu/
 Main file repository           : /tmp/trushin/molpro.SCiTY4CrrO/

 id        : chemieegortrushi

 Nodes         nprocs
 trushin-laptop    1
 GA implementation: MPI file
 GA implementation (serial work in mppx): MPI file

 Using customized tuning parameters: mindgm=1; mindgv=20; mindgc=4; mindgr=1; noblas=0; minvec=7
 default implementation of scratch files=df  


 Variables initialized (1028), CPU time= 0.00 sec
 memory,2000,m                                                                   ! memory specification
 
 basis={
 default,aug-cc-pwCVQZ                                                           ! orbital basis
 set,oep;default,aug-cc-pVDZ/mp2fit                                              ! OEP basis
 }
 
 symmetry,nosym                                                                  ! KSINV does not use symmetry
 
 angstrom
 geometry={
 2
 C        0.000000    0.000000   -0.646514
 O        0.000000    0.000000    0.484886
 }
 
 hf,maxit=0                                                  ! HF calculation with 0 iterations, KSINV uses this for initialization
 
 {matrop;read,den,type=density,file=dm.dat;save,den,1325.1}                      ! read stored density matrix
 
 acfd;ksinv,refden=1325.1,e_ref=-113.285493180105,thr_fai_oep=1.7d-2,\           ! KSINV calculation
 plot_vx=1,plot_vc=1,plot_vxc=1,plot_vref=1,plot_z=1
 Commands initialized (841), CPU time= 0.00 sec, 692 directives.
 Default parameters read. Elapsed time= 0.05 sec

 Checking input...
 Passed
1


                                         ***  PROGRAM SYSTEM MOLPRO  ***
                                       Copyright, TTI GmbH Stuttgart, 2015
                                    Version 2023.1 linked Fri Apr  7 21:53:30 2023


 **********************************************************************************************************************************
 LABEL *                                                                                                                                                                 
  (16 PROC) 64 bit serial version                                                        DATE: 07-Apr-23          TIME: 22:58:01  
 **********************************************************************************************************************************

 SHA1:             6d59e52f6e9ecb459feb34330aba5e0f3971c0af
 **********************************************************************************************************************************

 Memory per process:      2000 MW
 Total memory per node:   2000 MW

 GA preallocation disabled
 GA check disabled

 Variable memory set to 2000.0 MW

 SETTING BASIS          =    AUG-CC-PWCVQZ
 ZSYMEL=NOSYM
 ZUNIT=ANG


 Geometry recognized as XYZ



 Recomputing integrals since basis changed


 Using spherical harmonics

 Library entry C      S aug-cc-pwCVQZ        selected for orbital group  1
 Library entry C      P aug-cc-pwCVQZ        selected for orbital group  1
 Library entry C      D aug-cc-pwCVQZ        selected for orbital group  1
 Library entry C      F aug-cc-pwCVQZ        selected for orbital group  1
 Library entry C      G aug-cc-pwCVQZ        selected for orbital group  1
 Library entry O      S aug-cc-pwCVQZ        selected for orbital group  2
 Library entry O      P aug-cc-pwCVQZ        selected for orbital group  2
 Library entry O      D aug-cc-pwCVQZ        selected for orbital group  2
 Library entry O      F aug-cc-pwCVQZ        selected for orbital group  2
 Library entry O      G aug-cc-pwCVQZ        selected for orbital group  2


 PROGRAM * SEWARD (Integral evaluation for generally contracted gaussian basis sets)     Author: Roland Lindh, 1990

 Geometry written to block  1 of record 700


 Point group  C1  



 ATOMIC COORDINATES

 NR  ATOM    CHARGE       X              Y              Z

   1  C       6.00    0.000000000    0.000000000   -1.221734396
   2  O       8.00    0.000000000    0.000000000    0.916301742

 Bond lengths in Bohr (Angstrom)

 1-2  2.138036137
     ( 1.131400000)

 NUCLEAR CHARGE:                   14
 NUMBER OF PRIMITIVE AOS:         304
 NUMBER OF SYMMETRY AOS:          244
 NUMBER OF CONTRACTIONS:          218   (  218A   )
 NUMBER OF INNER CORE ORBITALS:     0   (    0A   )
 NUMBER OF OUTER CORE ORBITALS:     2   (    2A   )
 NUMBER OF VALENCE ORBITALS:        8   (    8A   )


 NUCLEAR REPULSION ENERGY   22.45050921


 Basis set:    OEP
 Basis size:   144
 Sphericals:   T

 **********************************************************************************************************************************

 EXTRA SYMMETRY OF AOS IN SYMMETRY 1:   1 1 1 1 1 1 1 1 1 2   3 1 2 3 1 2 3 1 2 3   1 2 3 1 2 3 1 2 3 1   2 3 1 1 4 2 5 3 1 4
                                        2 5 3 1 4 2 5 3 1 4   2 5 3 1 4 2 5 3 1 4   2 5 3 2 3 1 6 4 7 5   2 3 1 6 4 7 5 2 3 1
                                        6 4 7 5 2 3 1 6 4 7   5 1 4 2 8 3 5 9 6 7   1 4 2 8 3 5 9 6 7 1   1 1 1 1 1 1 1 1 2 3
                                        1 2 3 1 2 3 1 2 3 1   2 3 1 2 3 1 2 3 1 2   3 1 1 4 2 5 3 1 4 2   5 3 1 4 2 5 3 1 4 2
                                        5 3 1 4 2 5 3 1 4 2   5 3 2 3 1 6 4 7 5 2   3 1 6 4 7 5 2 3 1 6   4 7 5 2 3 1 6 4 7 5
                                        1 4 2 8 3 5 9 6 7 1   4 2 8 3 5 9 6 7

 Eigenvalues of metric

         1 0.247E-04 0.291E-04 0.918E-04 0.392E-03 0.504E-03 0.504E-03 0.560E-03 0.833E-03


 Contracted 2-electron integrals neglected if value below      1.0D-12
 AO integral compression algorithm  1   Integral accuracy      1.0D-12

     392.430 MB (compressed) written to integral file ( 13.4%)


 NUMBER OF SORTED TWO-ELECTRON INTEGRALS:  284924256.     BUFFER LENGTH:  32768
 NUMBER OF SEGMENTS:  18  SEGMENT LENGTH:   15999762      RECORD LENGTH: 524288

 Memory used in sort:      16.56 MW

 SORT1 READ   366115963. AND WROTE    49490720. INTEGRALS IN    150 RECORDS. CPU TIME:     0.67 SEC, REAL TIME:     0.96 SEC
 SORT2 READ    49490720. AND WROTE   284924256. INTEGRALS IN   1497 RECORDS. CPU TIME:     1.36 SEC, REAL TIME:     1.56 SEC

 FILE SIZES:   FILE 1:   424.2 MBYTE,  FILE 4:   629.2 MBYTE,   TOTAL:   1053.4 MBYTE

 OPERATOR DM      FOR CENTER  0  COORDINATES:    0.000000    0.000000    0.000000


 **********************************************************************************************************************************
 DATASETS  * FILE   NREC   LENGTH (MB)   RECORD NAMES
              1      19      281.25       500      610      700      900      950      970     1000      129      960     1100   
                                          VAR    BASINP    GEOM    SYMINP    ZMAT    AOBASIS   BASIS     P2S    ABASIS      S 
                                         1400     1410     1200     1210     1080     1600     1650     1300     1700   
                                           T        V       H0       H01     AOSYM     SMH    MOLCAS    ERIS     OPER   

 PROGRAMS   *        TOTAL       INT
 CPU TIMES  *        26.73     26.65
 REAL TIME  *        11.07 SEC
 DISK USED  *      1005.02 MB
 **********************************************************************************************************************************


 Program * Restricted Hartree-Fock

 Orbital guess generated from atomic densities. Full valence occupancy:   10

 Initial occupancy:   7

 NELEC=   14   SYM=1   MS2= 0   THRE=1.0D-08   THRD=3.2D-06   THRG=3.2D-06  HFMA2=F  DIIS_START=2   DIIS_MAX=10   DIIS_INCORE=F

 Level shifts:    0.00 (CLOSED)    0.00 (OPEN)    0.30 (GAP_MIN)

 ITER           ETOT              DE          GRAD        DDIFF     DIIS  NEXP   TIME(IT)  TIME(TOT)  DIAG
   1     -112.76795675    -112.76795675     0.00D+00     0.32D-01     0     0      12.29     20.67    start

 Orbitals not optimized (maxit=1)

 Final occupancy:   7

 !RHF STATE 1.1 Energy               -112.767956746539
  RHF One-electron energy            -197.912736910553
  RHF Two-electron energy              62.694270951230
  RHF Kinetic energy                  112.532393234686
  RHF Nuclear energy                   22.450509212784
  RHF Virial quotient                  -1.002093295140

 !RHF STATE 1.1 Dipole moment           0.00000000     0.00000000    -0.24622217
 Dipole moment /Debye                   0.00000000     0.00000000    -0.62583434

 Orbital energies:

           1.1          2.1          3.1          4.1          5.1          6.1          7.1          8.1          9.1
    -20.585017   -11.498374    -1.526439    -0.783066    -0.639630    -0.639630    -0.589941     0.098928     0.098928


 HOMO      7.1    -0.589941 =     -16.0531eV
 LUMO      8.1     0.098928 =       2.6920eV
 LUMO-HOMO         0.688869 =      18.7451eV

 Orbitals saved in record  2100.2


 **********************************************************************************************************************************
 DATASETS  * FILE   NREC   LENGTH (MB)   RECORD NAMES
              1      19      281.25       500      610      700      900      950      970     1000      129      960     1100   
                                          VAR    BASINP    GEOM    SYMINP    ZMAT    AOBASIS   BASIS     P2S    ABASIS      S 
                                         1400     1410     1200     1210     1080     1600     1650     1300     1700   
                                           T        V       H0       H01     AOSYM     SMH    MOLCAS    ERIS     OPER   

              2       4        1.15       700     1000      520     2100   
                                         GEOM     BASIS   MCVARS     RHF  

 PROGRAMS   *        TOTAL    HF-SCF       INT
 CPU TIMES  *        47.42     20.69     26.65
 REAL TIME  *        15.32 SEC
 DISK USED  *      1005.02 MB
 **********************************************************************************************************************************


 PROGRAM * MATROP


 READING MATRIX DEN (DENSITY) FROM FILE dm.dat. SYMMETRY=1

 Charge density  DEN saved in record 1325.1 (set 1)


 **********************************************************************************************************************************
 DATASETS  * FILE   NREC   LENGTH (MB)   RECORD NAMES
              1      20      281.52       500      610      700      900      950      970     1000      129      960     1100   
                                          VAR    BASINP    GEOM    SYMINP    ZMAT    AOBASIS   BASIS     P2S    ABASIS      S 
                                         1400     1410     1200     1210     1080     1600     1650     1300     1700     1325   
                                           T        V       H0       H01     AOSYM     SMH    MOLCAS    ERIS     OPER    MATROP    

              2       4        1.15       700     1000      520     2100   
                                         GEOM     BASIS   MCVARS     RHF  

 PROGRAMS   *        TOTAL    MATROP    HF-SCF       INT
 CPU TIMES  *        48.07      0.64     20.69     26.65
 REAL TIME  *        15.66 SEC
 DISK USED  *      1005.02 MB
 **********************************************************************************************************************************

 Basis set:    OEP
 Basis size:   144
 Sphericals:   T

 PROGRAM * KSINV     (Kohn-Sham Inversion)
 Authors: J. Erhard, E. Trushin

 Read Reference Density from 1325.1
 Read Orbital Records from 2100.2
 Write Orbital Records to 2101.2
 Reference energy:     -113.285493180105
 Threshold for inversion convergence:     1.000E-10
 Maximum number of iterations:  30
 Minimum number of iterations:   3
 mixing_a:    1.000E-01
 mix_switch_iter:   3
 Use backfiltering: T
 Thresholds for processing of OEP basis set:
 thr_symmetry:   0.000E+00
 thr_overlap_oep:     1.000E-99
 thr_fai_oep:     1.700E-02
 Fermi-Amaldi as reference potential: T
 Threshold for eigenvalue difference in calculation of Lambda:    1.000E-06
 Threshold for eigenproblem solver of OEP equation:    1.000E-99
 Solver for eigenproblems: GTSVD
 Plotting parameters:
 l_plot_always: F
 l_plot_vc: T
 l_plot_vx: T
 l_plot_vxc: T
 l_plot_vref: T
 l_plot_rho_ks: F
 l_plot_rho_ref: F
 l_plot_rho_diff: F
 l_plot_x_line: F
 l_plot_y_line: F
 l_plot_z_line: T
 i_gridsize:  2048
 r0_plot_range:     20.0000

 Density matrix read from record         1325.1  Type=MATROP/CHARGE  
 Occupation numbers read from record     2100.2  Type=RHF/RHF  

   ITER        ENERGY             |t|          TIME
     0                                          2.19
     1      -94.6629142924     0.863E+00        4.22
     2      -96.5267629662     0.776E+00        6.30
     3      -98.2315717547     0.697E+00        8.33
     4      -99.7347789618     0.627E+00       10.34
     5     -101.5155915700     0.545E+00       12.35
     6     -103.6398227593     0.446E+00       14.36
     7     -106.1420437876     0.330E+00       16.36
     8     -108.9034465846     0.203E+00       18.38
     9     -111.4172813817     0.867E-01       20.44
    10     -112.8753759219     0.186E-01       22.54
    11     -113.2213133855     0.412E-02       24.74
    12     -113.2487775029     0.239E-03       27.02
    13     -113.2514723594     0.154E-03       29.06
    14     -113.2517643235     0.958E-05       31.10
    15     -113.2518212775     0.623E-05       33.13
    16     -113.2518237719     0.670E-06       35.15
    17     -113.2518256108     0.271E-06       37.35
    18     -113.2518254539     0.405E-07       39.55
    19     -113.2518255345     0.125E-07       42.88
    20     -113.2518255197     0.223E-08       45.55
    21     -113.2518255239     0.592E-09       48.26
    22     -113.2518255229     0.117E-09       50.64
    23     -113.2518255231     0.285E-10       53.58

 Diff E_x:       0.115223663697
 Diff E_H:       0.008326884340
 Diff E_kin:     0.396852871025
 Diff E_ext:    -0.033667656962

 SCF converged in    23 iterations

 KSINV orbitals written to record    2101.2
 
 !KSINV Total energy                 -113.251825523143
  KSINV One-electron energy          -198.237287460830
  KSINV Two-electron energy            63.010175326009
  KSINV Nuclear energy                 22.450509212784
  KSINV Coulomb energy                 76.317979288012
  KSINV Exchange energy               -13.307803962003
  KSINV Correlation energy             -0.475222601106
 
 !KSINV Dipole moment                  -0.00000000     0.00000000     0.01790663
 Dipole moment /Debye                  -0.00000000     0.00000000     0.04551412

 KSINV eigenvalues
   1-  10  -0.19035E+02 -0.10194E+02 -0.12317E+01 -0.66886E+00 -0.57931E+00 -0.57931E+00 -0.47436E+00 -0.20798E+00 -0.20798E+00 -0.11438E+00
  11-  17  -0.80532E-01 -0.79584E-01 -0.79584E-01 -0.21508E-01 -0.71276E-02 -0.71276E-02  0.23920E-01

 LUMO-HOMO:  0.26638E+00


 **********************************************************************************************************************************
 DATASETS  * FILE   NREC   LENGTH (MB)   RECORD NAMES
              1      20      281.52       500      610      700      900      950      970     1000      129      960     1100   
                                          VAR    BASINP    GEOM    SYMINP    ZMAT    AOBASIS   BASIS     P2S    ABASIS      S 
                                         1400     1410     1200     1210     1080     1600     1650     1300     1700     1325   
                                           T        V       H0       H01     AOSYM     SMH    MOLCAS    ERIS     OPER    MATROP    

              2       5        2.34       700     1000      520     2100     2101   
                                         GEOM     BASIS   MCVARS     RHF     KSINV   

 PROGRAMS   *        TOTAL      ACFD    MATROP    HF-SCF       INT
 CPU TIMES  *       323.17    275.09      0.64     20.69     26.65
 REAL TIME  *        69.26 SEC
 DISK USED  *      1005.02 MB
 **********************************************************************************************************************************

 ACFD/aug-cc-pWCVQZ energy=   -113.251825523143

            ACFD          HF-SCF
   -113.25182552   -112.76795675
 **********************************************************************************************************************************
 Molpro calculation terminated
