
 Working directory              : /tmp/trushin/molpro.RxNZRYBmw4/
 Global scratch directory       : /tmp/trushin/molpro.RxNZRYBmw4/
 Wavefunction directory         : /home/trushin/wfu/
 Main file repository           : /tmp/trushin/molpro.RxNZRYBmw4/

 id        : chemie

 Nodes         nprocs
 trushin-laptop    1
 GA implementation: MPI file
 GA implementation (serial work in mppx): MPI file

 Using customized tuning parameters: mindgm=1; mindgv=20; mindgc=4; mindgr=1; noblas=0; minvec=7
 default implementation of scratch files=df  


 Variables initialized (1064), CPU time= 0.00 sec
 basis={
 default,aug-cc-pwCVQZ                                                           ! orbital basis
 set,oep;default,aug-cc-pVDZ/mp2fit                                              ! OEP basis
 }
 
 symmetry,nosym                                                                  ! KSINV does not use symmetry
 
 angstrom
 geometry={
 1
 Li        0.000000    0.000000    0.000000
 }
 
 hf,maxit=30                                                                     ! HF calculations
 
 {ci;core;dm,1325.1}                                                             ! reference CCSD calculation
 
 {matrop;load,den,den,1325.1;write,den,dm.dat,status=rewind,prec=sci}
 Commands initialized (839), CPU time= 0.01 sec, 728 directives.
 Default parameters read. Elapsed time= 0.05 sec

 Checking input...
 Passed
1


                                         ***  PROGRAM SYSTEM MOLPRO  ***
                                       Copyright, TTI GmbH Stuttgart, 2015
                                  Version 2025.3 linked Fri Jul 25 19:30:30 2025


 **********************************************************************************************************************************
 LABEL *                                                                                                                                                                 
                                                                                         DATE: 25-Jul-25          TIME: 23:03:43  
 **********************************************************************************************************************************

 SHA1:             75e8eeae7fb56d6b934318e4f3baafa252b7f4c8
 **********************************************************************************************************************************

 Memory per process:      2000 MW
 Total memory per node:   2000 MW

 GA preallocation disabled
 GA check disabled

 Variable memory set to 2000.0 MW

 SETTING BASIS          =    AUG-CC-PWCVQZ

 ZSYMEL=NOSYM


 Geometry recognized as XYZ



 Recomputing integrals since basis changed


 Using spherical harmonics

 Library entry LI     S aug-cc-pwCVQZ        selected for orbital group  1
 Library entry LI     P aug-cc-pwCVQZ        selected for orbital group  1
 Library entry LI     D aug-cc-pwCVQZ        selected for orbital group  1
 Library entry LI     F aug-cc-pwCVQZ        selected for orbital group  1
 Library entry LI     G aug-cc-pwCVQZ        selected for orbital group  1


 PROGRAM * SEWARD (Integral evaluation for generally contracted gaussian basis sets)     Author: Roland Lindh, 1990

 Geometry written to block  1 of record 700

 Orientation using atomic masses  
 Molecule type: Atom
 Rotational constants:       0.0000000      0.0000000      0.0000000 GHz  (calculated with average atomic masses)

 Point group  C1  



 ATOMIC COORDINATES

 NR  ATOM    CHARGE       X              Y              Z

   1  LI      3.00    0.000000000    0.000000000    0.000000000

 NUCLEAR CHARGE:                    3
 NUMBER OF PRIMITIVE AOS:         152
 NUMBER OF SYMMETRY AOS:          122
 NUMBER OF CONTRACTIONS:          109   (  109A   )
 NUMBER OF INNER CORE ORBITALS:     0   (    0A   )
 NUMBER OF OUTER CORE ORBITALS:     1   (    1A   )
 NUMBER OF VALENCE ORBITALS:        4   (    4A   )


 NUCLEAR REPULSION ENERGY .00000000


 Basis set: OEP
 Default basis aug-cc-pVDZ/MP2FIT selected for LI
 Library entry LI     S aug-cc-pVDZ-MP2F     selected for OEP group  1
 Library entry LI     P aug-cc-pVDZ-MP2F     selected for OEP group  1
 Library entry LI     D aug-cc-pVDZ-MP2F     selected for OEP group  1
 Library entry LI     F aug-cc-pVDZ-MP2F     selected for OEP group  1
 Basis size: 72

 **********************************************************************************************************************************

 EXTRA SYMMETRY OF AOS IN SYMMETRY 1:   1 1 1 1 1 1 1 1 1 2   3 4 2 3 4 2 3 4 2 3   4 2 3 4 2 3 4 2 3 4   2 3 4 5 6 7 8 9 5 6
                                        7 8 9 5 6 7 8 9 5 6   7 8 9 5 6 7 8 9 5 6   7 8 910111213141516  10111213141516101112
                                       13141516101112131415  16171819202122232425  171819202122232425

 Eigenvalues of metric

         1 0.885E-04 0.470E-03 0.470E-03 0.470E-03 0.189E-02 0.993E-02 0.410E-01 0.410E-01


 Contracted 2-electron integrals neglected if value below      1.0D-11
 AO integral compression algorithm  1   Integral accuracy      1.0D-11

     17.826 MB (compressed) written to integral file ( 13.2%)


 NUMBER OF SORTED TWO-ELECTRON INTEGRALS:   17973010.     BUFFER LENGTH:  32768
 NUMBER OF SEGMENTS:   2  SEGMENT LENGTH:   15997996      RECORD LENGTH: 524288

 Memory used in sort:      16.56 MW

 SORT1 READ    17015161. AND WROTE     1729514. INTEGRALS IN      6 RECORDS. CPU TIME:     0.05 SEC, REAL TIME:     0.05 SEC
 SORT2 READ     1729514. AND WROTE    17973010. INTEGRALS IN     68 RECORDS. CPU TIME:     0.15 SEC, REAL TIME:     0.15 SEC

 FILE SIZES:   FILE 1:    48.7 MBYTE,  FILE 4:    25.2 MBYTE,   TOTAL:     73.9 MBYTE

 OPERATOR DM      FOR CENTER  0  COORDINATES:    0.000000    0.000000    0.000000


 **********************************************************************************************************************************
 DATASETS  * FILE   NREC   LENGTH (MB)   RECORD NAMES
              1      19       38.89       500      610      700      900      950      970     1000      129      960     1100   
                                          VAR    BASINP    GEOM    SYMINP    ZMAT    AOBASIS   BASIS     P2S    ABASIS      S 
                                         1400     1410     1200     1210     1080     1600     1650     1300     1700   
                                           T        V       H0       H01     AOSYM     SMH    MOLCAS    ERIS     OPER   

 PROGRAMS   *        TOTAL       INT
 CPU TIMES  *         2.12      2.03
 REAL TIME  *         2.12 SEC
 DISK USED  *        70.87 MB
 **********************************************************************************************************************************


 Program * Restricted Hartree-Fock

 Generating basis MINAO
  Atom=LI       basis=MINAO
 Number of basis functions:       2

 Orbital guess generated from atomic densities.

 Initial alpha occupancy:   2
 Initial beta  occupancy:   1

 NELEC=    3   SYM=1   MS2= 1   THRE=1.0D-08   THRD=3.2D-06   THRG=3.2D-06  HFMA2=F  DIIS_START=2   DIIS_MAX=10   DIIS_INCORE=F

 Level shifts:    0.00 (CLOSED)    0.00 (OPEN)    0.30 (GAP_MIN)

 ITER           ETOT              DE          GRAD        DDIFF     DIIS  NEXP   TIME(IT)  TIME(TOT)  DIAG
   1       -7.43039107      -7.43039107     0.00D+00     0.28D-01     0     0       0.12      0.20    start
   2       -7.43178278      -0.00139171     0.63D-03     0.16D-02     1     0       0.12      0.32    diag2
   3       -7.43268523      -0.00090245     0.39D-03     0.26D-02     2     0       0.12      0.44    diag2
   4       -7.43269486      -0.00000963     0.41D-04     0.27D-03     3     0       0.12      0.56    diag2
   5       -7.43269542      -0.00000056     0.11D-04     0.99D-04     4     0       0.12      0.68    diag2
   6       -7.43269543      -0.00000001     0.16D-05     0.87D-05     5     0       0.12      0.80    diag2
   7       -7.43269543      -0.00000000     0.37D-06     0.44D-05     6     0       0.12      0.92    diag2
   8       -7.43269543      -0.00000000     0.32D-07     0.31D-06     7     0       0.12      1.04    fixocc
   9       -7.43269543       0.00000000     0.16D-08     0.11D-07     0     0       0.12      1.16    diag

 Final alpha occupancy:   2
 Final beta  occupancy:   1

 !RHF STATE 1.1 Energy                 -7.432695434326
  RHF One-electron energy              -9.713627002523
  RHF Two-electron energy               2.280931568197
  RHF Kinetic energy                    7.432667525905
  RHF Nuclear energy                    0.000000000000
  RHF Virial quotient                  -1.000003754832

 !RHF STATE 1.1 Dipole moment           0.00000000     0.00000000     0.00000000
 Dipole moment /Debye                   0.00000000     0.00000000     0.00000000

 Orbital energies:

           1.1          2.1          3.1          4.1
     -2.477721    -0.196322     0.011233     0.011233


 HOMO      2.1    -0.196322 =      -5.3422eV
 LUMO      3.1     0.011233 =       0.3057eV
 LUMO-HOMO         0.207555 =       5.6478eV

 Orbitals saved in record  2100.2


 **********************************************************************************************************************************
 DATASETS  * FILE   NREC   LENGTH (MB)   RECORD NAMES
              1      19       38.89       500      610      700      900      950      970     1000      129      960     1100   
                                          VAR    BASINP    GEOM    SYMINP    ZMAT    AOBASIS   BASIS     P2S    ABASIS      S 
                                         1400     1410     1200     1210     1080     1600     1650     1300     1700   
                                           T        V       H0       H01     AOSYM     SMH    MOLCAS    ERIS     OPER   

              2       4        0.76       700     1000      520     2100   
                                         GEOM     BASIS   MCVARS     RHF  

 PROGRAMS   *        TOTAL    HF-SCF       INT
 CPU TIMES  *         3.29      1.17      2.03
 REAL TIME  *         3.28 SEC
 DISK USED  *        70.87 MB
 **********************************************************************************************************************************

 Basis set: OEP
 Default basis aug-cc-pVDZ/MP2FIT selected for LI
 Library entry LI     S aug-cc-pVDZ-MP2F     selected for OEP group  1
 Library entry LI     P aug-cc-pVDZ-MP2F     selected for OEP group  1
 Library entry LI     D aug-cc-pVDZ-MP2F     selected for OEP group  1
 Library entry LI     F aug-cc-pVDZ-MP2F     selected for OEP group  1
 Basis size: 72

 PROGRAM * CI (Multireference internally contracted CI)     Authors: H.-J. Werner, P.J. Knowles, 1987


 Convergence thresholds:  THRVAR = 1.00D-08  THRDEN = 1.00D-06

 Number of optimized states: 1  Roots:    1
 Number of reference states: 1  Roots:    1

 Reference symmetry:                   1   Doublet 
 Number of electrons:                  3
 Maximum number of shells:             2
 Maximum number of spin couplings:     2

 Reference space:        1 conf        1 CSFs
 N elec internal:        2 conf        2 CSFs
 N-1 el internal:        3 conf        4 CSFs
 N-2 el internal:        2 conf        4 CSFs

 Number of electrons in valence space:                      3
 Maximum number of open shell orbitals in reference space:  1
 Maximum number of open shell orbitals in internal spaces:  3


 Number of closed-shell orbitals:   1 (   1 )
 Number of active  orbitals:        1 (   1 )
 Number of external orbitals:     107 ( 107 )

 Molecular orbitals read from record     2100.2  Type=RHF/CANONICAL (state 1.1)

 Integral transformation finished. Total CPU:   0.07 sec, npass=  1  Memory used:   0.28 MW


 Number of p-space configurations:   1

 Reference wavefunction optimized for reference space (refopt=1)

 State     Reference Energy 
     1        -7.43269543

 Number of blocks in overlap matrix:     3   Smallest eigenvalue:  0.10D+01
 Number of N-2 electron functions:       3
 Number of N-1 electron functions:       4

 Number of internal configurations:                    2
 Number of singly external configurations:           428
 Number of doubly external configurations:         17227
 Total number of contracted configurations:        17657
 Total number of uncontracted configurations:      23328

 Diagonal Coupling coefficients finished.               Storage:    171880 words, CPU-Time:      0.00 seconds.
 Energy denominators for pairs finished in 1 passes.    Storage:    229813 words, CPU-time:      0.00 seconds.

  ITER. STATE  ROOT     SQ.NORM     CORR.ENERGY   TOTAL ENERGY   ENERGY CHANGE       DEN1      VAR(S)    VAR(P)      TIME
    1     1     1     1.00000000     0.00000000    -7.43269543    -0.00000000    -0.04112963  0.79D-04  0.30D-02     0.10
    2     1     1     1.00334446    -0.04281924    -7.47551467    -0.04281924    -0.00031802  0.23D-04  0.21D-04     0.25
    3     1     1     1.00371767    -0.04317134    -7.47586678    -0.00035211    -0.00000454  0.24D-05  0.20D-06     0.41
    4     1     1     1.00375408    -0.04317699    -7.47587243    -0.00000565    -0.00000017  0.27D-06  0.38D-08     0.57
    5     1     1     1.00376533    -0.04317724    -7.47587267    -0.00000025    -0.00000001  0.11D-07  0.68D-09     0.73
    6     1     1     1.00376655    -0.04317726    -7.47587269    -0.00000002    -0.00000000  0.31D-09  0.36D-10     0.89


 =====================================
 Analysis of CPU times by interactions
 =====================================

       I      S      P

 I   0.1%
 S   0.3%   0.6%
 P   0.2%   0.2%   5.6%

 Initialization:  10.7%
 Other:           82.3%

 Total CPU:        0.9 seconds
 =====================================



 Reference coefficients greater than 0.0500000
 =============================================
 2/           0.9981217


 RESULTS FOR STATE 1.1
 =====================

 Coefficient of reference function:   C(0) = 0.99812171 (fixed)   0.99812171 (relaxed)

 Energy contributions of configuration classes

 CLASS          SQ.NORM        ECORR1        ECORR2
 +++++++++++++++++++++++++++++++++++++++++++++++++++
 Internals    0.00000064    0.00000000   -0.00000003
 Singles      0.00016763   -0.00066966   -0.00067439
 Pairs        0.00359893   -0.04250760   -0.04250284
 Total        1.00376719   -0.04317726   -0.04317726
 +++++++++++++++++++++++++++++++++++++++++++++++++++


 Reference energy                      -7.43269543
 Nuclear energy                         0.00000000
 Kinetic energy                         7.47294803
 One electron energy                   -9.67624746
 Two electron energy                    2.20037477
 Virial quotient                       -1.00039137
 Correlation energy                    -0.04317726
 !CI(SD) STATE 1.1 Energy              -7.475872692580

 Properties without orbital relaxation:

 !CI(SD) STATE 1.1 Dipole moment       -0.00000000    -0.00000000    -0.00000000
 Dipole moment /Debye                  -0.00000000    -0.00000000    -0.00000000

 Cluster corrected energies            -7.47603535 (Davidson, fixed reference)
 Cluster corrected energies            -7.47603535 (Davidson, relaxed reference)

 Cluster corrected energies            -7.47587269 (Pople, fixed reference)
 Cluster corrected energies            -7.47587269 (Pople, relaxed reference)


 CI(SD) density matrix saved on record      1325.1 (density set 1)


 **********************************************************************************************************************************
 DATASETS  * FILE   NREC   LENGTH (MB)   RECORD NAMES
              1      21       39.62       500      610      700      900      950      970     1000      129      960     1100   
                                          VAR    BASINP    GEOM    SYMINP    ZMAT    AOBASIS   BASIS     P2S    ABASIS      S 
                                         1400     1410     1200     1210     1080     1600     1650     1300     1700     1380   
                                           T        V       H0       H01     AOSYM     SMH    MOLCAS    ERIS     OPER     JKOP   
                                         1325   
                                        CI(SD)    

              2       4        0.76       700     1000      520     2100   
                                         GEOM     BASIS   MCVARS     RHF  

 PROGRAMS   *        TOTAL        CI    HF-SCF       INT
 CPU TIMES  *         4.21      0.92      1.17      2.03
 REAL TIME  *         4.10 SEC
 DISK USED  *        70.87 MB
 **********************************************************************************************************************************


 PROGRAM * MATROP


 Density DEN read from record            1325.1  Type=CI(SD)/CHARGE (state 1.1)

 Matrix DEN written to file dm.dat                          


 **********************************************************************************************************************************
 DATASETS  * FILE   NREC   LENGTH (MB)   RECORD NAMES
              1      21       39.62       500      610      700      900      950      970     1000      129      960     1100   
                                          VAR    BASINP    GEOM    SYMINP    ZMAT    AOBASIS   BASIS     P2S    ABASIS      S 
                                         1400     1410     1200     1210     1080     1600     1650     1300     1700     1380   
                                           T        V       H0       H01     AOSYM     SMH    MOLCAS    ERIS     OPER     JKOP   
                                         1325   
                                        CI(SD)    

              2       4        0.76       700     1000      520     2100   
                                         GEOM     BASIS   MCVARS     RHF  

 PROGRAMS   *        TOTAL    MATROP        CI    HF-SCF       INT
 CPU TIMES  *         4.22      0.01      0.92      1.17      2.03
 REAL TIME  *         4.11 SEC
 DISK USED  *        70.87 MB
 **********************************************************************************************************************************

              CI          HF-SCF
     -7.47587269     -7.43269543
 **********************************************************************************************************************************
 Molpro calculation terminated
