
 Working directory              : /tmp/trushin/molpro.HdGvCa9luo/
 Global scratch directory       : /tmp/trushin/molpro.HdGvCa9luo/
 Wavefunction directory         : /home/trushin/wfu/
 Main file repository           : /tmp/trushin/molpro.HdGvCa9luo/

 id        : chemieegortrushi

 Nodes         nprocs
 trushin-laptop    1
 GA implementation: MPI file
 GA implementation (serial work in mppx): MPI file

 Using customized tuning parameters: mindgm=1; mindgv=20; mindgc=4; mindgr=1; noblas=0; minvec=7
 default implementation of scratch files=df  


 Variables initialized (1031), CPU time= 0.01 sec
 gdirect                                                                         ! integral-direct mode
 
 basis={
 default,aug-cc-pwCVQZ                                                           ! orbital basis
 set,oep;default,aug-cc-pVDZ/mp2fit                                              ! OEP basis
 }
 
 symmetry,nosym                                                                  ! USCEXX does not use symmetry
 
 angstrom
 geometry={
 2
 Be    0.0000000    0.0000000   -0.6823625
 F     0.0000000    0.0000000    0.6823625
 }
 
 charge=0
 spin=1
 
 df-uhf,maxit=0,df_basis=aug-cc-pwCV5Z/mp2fit                                    ! HF calculation with 0 iterations
 {cfit,basis_coul=aug-cc-pwCV5Z/mp2fit,basis_exch=aug-cc-pwCV5Z/mp2fit}
 
 acfd;uscexx,oepsav=1,thr_fai_oep=1.7d-2                                         ! USCEXX calculation
 Commands initialized (842), CPU time= 0.00 sec, 704 directives.
 Default parameters read. Elapsed time= 0.04 sec

 Checking input...
 Passed
1


                                         ***  PROGRAM SYSTEM MOLPRO  ***
                                       Copyright, TTI GmbH Stuttgart, 2015
                                    Version 2023.1 linked Tue Apr 25 21:57:51 2023


 **********************************************************************************************************************************
 LABEL *                                                                                                                                                                 
  (16 PROC) 64 bit serial version                                                        DATE: 25-Apr-23          TIME: 22:08:15  
 **********************************************************************************************************************************

 SHA1:             c9539e2a6fe7c8460ba43ab18f35e13774d4ae12
 **********************************************************************************************************************************

 Memory per process:      2000 MW
 Total memory per node:   2000 MW

 GA preallocation disabled
 GA check disabled

 Variable memory set to 2000.0 MW

 SETTING BASIS          =    AUG-CC-PWCVQZ
 ZSYMEL=NOSYM
 ZUNIT=ANG


 Geometry recognized as XYZ

 SETTING CHARGE         =      0.0000000D+00                                  
 SETTING SPIN           =         1.00000000                                  


 Recomputing integrals since basis changed


 Using spherical harmonics

 Library entry BE     S aug-cc-pwCVQZ        selected for orbital group  1
 Library entry BE     P aug-cc-pwCVQZ        selected for orbital group  1
 Library entry BE     D aug-cc-pwCVQZ        selected for orbital group  1
 Library entry BE     F aug-cc-pwCVQZ        selected for orbital group  1
 Library entry BE     G aug-cc-pwCVQZ        selected for orbital group  1
 Library entry F      S aug-cc-pwCVQZ        selected for orbital group  2
 Library entry F      P aug-cc-pwCVQZ        selected for orbital group  2
 Library entry F      D aug-cc-pwCVQZ        selected for orbital group  2
 Library entry F      F aug-cc-pwCVQZ        selected for orbital group  2
 Library entry F      G aug-cc-pwCVQZ        selected for orbital group  2


 PROGRAM * SEWARD (Integral evaluation for generally contracted gaussian basis sets)     Author: Roland Lindh, 1990

 Geometry written to block  1 of record 700


 Point group  C1  



 ATOMIC COORDINATES

 NR  ATOM    CHARGE       X              Y              Z

   1  BE      4.00    0.000000000    0.000000000   -1.289478243
   2  F       9.00    0.000000000    0.000000000    1.289478243

 Bond lengths in Bohr (Angstrom)

 1-2  2.578956485
     ( 1.364725000)

 NUCLEAR CHARGE:                   13
 NUMBER OF PRIMITIVE AOS:         304
 NUMBER OF SYMMETRY AOS:          244
 NUMBER OF CONTRACTIONS:          218   (  218A   )
 NUMBER OF INNER CORE ORBITALS:     0   (    0A   )
 NUMBER OF OUTER CORE ORBITALS:     2   (    2A   )
 NUMBER OF VALENCE ORBITALS:        8   (    8A   )


 NUCLEAR REPULSION ENERGY   13.95913433


 Basis set:    OEP
 Basis size:   144
 Sphericals:   T

 **********************************************************************************************************************************

 EXTRA SYMMETRY OF AOS IN SYMMETRY 1:   1 1 1 1 1 1 1 1 1 2   3 1 2 3 1 2 3 1 2 3   1 2 3 1 2 3 1 2 3 1   2 3 1 1 4 2 5 3 1 4
                                        2 5 3 1 4 2 5 3 1 4   2 5 3 1 4 2 5 3 1 4   2 5 3 2 3 1 6 4 7 5   2 3 1 6 4 7 5 2 3 1
                                        6 4 7 5 2 3 1 6 4 7   5 1 4 2 8 3 5 9 6 7   1 4 2 8 3 5 9 6 7 1   1 1 1 1 1 1 1 1 2 3
                                        1 2 3 1 2 3 1 2 3 1   2 3 1 2 3 1 2 3 1 2   3 1 1 4 2 5 3 1 4 2   5 3 1 4 2 5 3 1 4 2
                                        5 3 1 4 2 5 3 1 4 2   5 3 2 3 1 6 4 7 5 2   3 1 6 4 7 5 2 3 1 6   4 7 5 2 3 1 6 4 7 5
                                        1 4 2 8 3 5 9 6 7 1   4 2 8 3 5 9 6 7

 Eigenvalues of metric

         1 0.231E-04 0.295E-04 0.138E-03 0.248E-03 0.293E-03 0.293E-03 0.583E-03 0.936E-03


 OPERATOR DM      FOR CENTER  0  COORDINATES:    0.000000    0.000000    0.000000


 **********************************************************************************************************************************
 DATASETS  * FILE   NREC   LENGTH (MB)   RECORD NAMES
              1      18       30.32       500      610      700      900      950      970     1000      129      960     1100   
                                          VAR    BASINP    GEOM    SYMINP    ZMAT    AOBASIS   BASIS     P2S    ABASIS      S 
                                         1400     1410     1200     1210     1080     1600     1650     1700   
                                           T        V       H0       H01     AOSYM     SMH    MOLCAS    OPER   

 PROGRAMS   *        TOTAL       INT
 CPU TIMES  *         0.63      0.55
 REAL TIME  *         0.98 SEC
 DISK USED  *        30.71 MB
 **********************************************************************************************************************************


 Program * Unrestricted Hartree-Fock

 Basis set AWCV5Z/MP2FIT generated.      Number of basis functions:   656 
 Coulomb and exchange fitting
 Thresholds for fitting:       THRAO_COUL= 1.0D-15    THRAO_EXCH= 1.0D-13    THRMO= 1.0D-12    THRPROD= 1.0D-12    THRASM= 1.0D-12
                               THR2HLF=    1.0D-12

 Basis set AWCV5Z-MP2FIT loaded. Number of basis functions: 656

 Orbital guess generated from atomic densities. Full valence occupancy:    7
 Using density fitting in orbital guess


 Initial alpha occupancy:   7
 Initial beta  occupancy:   6

 Elapsed time for starting guess:      2.74 sec

 NELEC=   13   SYM=1   MS2=1   THRE=1.0D-08   THRD=3.2D-06   THRG=3.2D-06  HFMA2=F  DIIS_START=2   DIIS_MAX=10   DIIS_INCORE=F

 Initial level shifts:    0.20 (ALPHA)    0.20 (BETA)

 ITER         ETOT            DE          GRAD         DDIFF    DIIS  NEXP   TIME(IT)  TIME(TOT)  DIAG
   1   -114.10217467  -114.10217467     0.00D+00     0.00D+00     0     0       3.82      6.56    start

 Orbitals not optimized (maxit=1)

 Final alpha occupancy:   7
 Final beta  occupancy:   6

 !UHF STATE 1.1 Energy               -114.102174666515
  UHF One-electron energy            -188.389485622255
  UHF Two-electron energy              60.328176630138
  UHF Kinetic energy                  115.599378648698
  UHF Nuclear energy                   13.959134325603
  UHF Virial quotient                  -0.987048338843

 !UHF STATE 1.1 Dipole moment           0.00000000    -0.00000000    -1.32243269
 Dipole moment /Debye                   0.00000000    -0.00000000    -3.36128862

 EXPECTATION VALUE OF S**2:             0.75000000

 Orbital energies for positive spin:

           1.1          2.1          3.1          4.1          5.1          6.1          7.1          8.1          9.1
    -26.477829    -4.754729    -1.738951    -0.776299    -0.711165    -0.711165    -0.210034     0.018284     0.018284

 Orbital energies for negative spin:

           1.1          2.1          3.1          4.1          5.1          6.1          7.1          8.1
    -26.477829    -4.754729    -1.738951    -0.776299    -0.711165    -0.711165    -0.210034     0.018284


 HOMO      7.1    -0.210034 =      -5.7153eV
 LUMO     -7.1    -0.210034 =      -5.7153eV
 LUMO-HOMO         0.000000 =       0.0000eV

 Orbitals saved in record  2200.2

 Occupation number threshold for pseudo-canonical orbitals: 1.9990 (occupied), 0.0010 (virtual)

 Number of pseudo-canonical occupied orbitals per symmetry:    6
 Number of active natural orbitals per symmetry:               1

 Natural orbitals saved to record    2200.2 (Orbital set 3)

 Orbital spaces for UNO-CAS (Min. occupation: 0.020  Max. occupation: 1.980):

 Closed:        6
 Active:        1


 **********************************************************************************************************************************
 DATASETS  * FILE   NREC   LENGTH (MB)   RECORD NAMES
              1      18       30.32       500      610      700      900      950      970     1000      129      960     1100   
                                          VAR    BASINP    GEOM    SYMINP    ZMAT    AOBASIS   BASIS     P2S    ABASIS      S 
                                         1400     1410     1200     1210     1080     1600     1650     1700   
                                           T        V       H0       H01     AOSYM     SMH    MOLCAS    OPER   

              2       4        2.26       700     1000      520     2200   
                                         GEOM     BASIS   MCVARS     UHF  

 PROGRAMS   *        TOTAL    DF-UHF       INT
 CPU TIMES  *         8.36      7.72      0.55
 REAL TIME  *         2.46 SEC
 DISK USED  *        44.96 MB
 **********************************************************************************************************************************

 Basis set:    OEP
 Basis size:   144
 Sphericals:   T

 PROGRAM * USCEXX      (unrestricted self-consistent exact-exchange)

 Authors:
 A. Hesselmann, P. Bleiziffer, D. Schmidtel, J. Erhard, A. Thierbach, E. Trushin

 Read Orbital Records from 2200.2
 Write Orbital Records to 2201.2
 Use density fitting to evaluate the Coulomb and exchange integrals: T
 Maximum number of iterations:  30
 Minimum number of iterations:   3
 DIIS is used:
 Maximum size of DIIS matrix:  10
 Threshold for energy convergence:   1.000E-08
 Threshold for density convergence:   0.000E+00
 Thresholds for processing of OEP basis set:
 thr_symmetry:   0.000E+00
 thr_overlap_oep:     1.000E-99
 thr_fai_oep:     1.700E-02
 Threshold for eigenvalue difference in calculation of Lambda:    1.000E-06
 Threshold for eigenproblem solver of OEP equation:    1.000E-99
 Solver for eigenproblems: GTSVD
 Average spins in OEP equations: T
 Constucting Hartree potential in OEP basis: F
 Fermi-Amaldi as reference potential: T
 The same reference potential for alpha and beta: F

 Molecular orbitals read from record     2200.2  Type=UHF/ALPHA  
 Orbital energies read from record       2200.2  Type=UHF/ALPHA  
 Density matrix read from record         2200.2  Type=UHF/CHARGE  
 Molecular orbitals read from record     2200.2  Type=UHF/BETA  
 Orbital energies read from record       2200.2  Type=UHF/BETA  
 Density matrix read from record         2200.2  Type=UHF/SPIN  
 Occupation numbers read from record     2200.2  Type=UHF/UHF  
 Occupation numbers read from record     2200.2  Type=UHF/UHF  

   ITER        ENERGY            EDIFF       DDIFF       DIIS         TIME
     0     -114.1021746665                                            2.44
     1     -113.9551622419     0.147E+00   0.102E-01      1           5.45
     2     -114.1590017573    -0.204E+00   0.736E-02      2           8.64
     3     -114.1653787349    -0.638E-02   0.153E-02      3          11.61
     4     -114.1654383979    -0.597E-04   0.674E-03      4          14.59
     5     -114.1654168127     0.216E-04   0.159E-03      5          17.75
     6     -114.1654294015    -0.126E-04   0.476E-04      6          21.15
     7     -114.1654293201     0.813E-07   0.290E-05      5          24.30
     8     -114.1654292864     0.337E-07   0.469E-06      5          27.38
     9     -114.1654292792     0.724E-08   0.813E-07      5          30.55

 SCF converged in     9 iterations

 USCEXX orbitals written to record    2201.2
 
 !USCEXX Total energy                -114.165429279152
  USCEXX One-electron energy         -186.943737105670
  USCEXX Two-electron energy           58.819173500916
  USCEXX Nuclear energy                13.959134325603
  USCEXX Coulomb energy                71.723243527475
  USCEXX Exchange energy              -12.904070026559
 
 !USCEXX Dipole moment                 -0.00000000     0.00000000    -0.52849864
 Dipole moment /Debye                  -0.00000000     0.00000000    -1.34330957

 EXPECTATION VALUE OF S**2:             0.75000000

 USCEXX eigenvalues (alpha)
   1-  10  -0.24380E+02 -0.40680E+01 -0.12668E+01 -0.59108E+00 -0.54808E+00 -0.54808E+00 -0.30414E+00 -0.15174E+00 -0.15174E+00 -0.11083E+00
  11-  17  -0.84675E-01 -0.66109E-01 -0.66109E-01 -0.47921E-01 -0.14961E-01 -0.84889E-02 -0.84889E-02

 HOMO (alpha): -0.30414E+00
 LUMO (alpha): -0.15174E+00
 LUMO-HOMO (alpha):  0.15240E+00

 USCEXX eigenvalues (beta)
   1-  10  -0.24380E+02 -0.40680E+01 -0.12668E+01 -0.59108E+00 -0.54808E+00 -0.54808E+00 -0.30414E+00 -0.15174E+00 -0.15174E+00 -0.11083E+00
  11-  17  -0.84675E-01 -0.66109E-01 -0.66109E-01 -0.47921E-01 -0.14961E-01 -0.84889E-02 -0.84889E-02

 HOMO (beta): -0.54808E+00
 LUMO (beta): -0.30414E+00
 LUMO-HOMO (beta):  0.24393E+00


 **********************************************************************************************************************************
 DATASETS  * FILE   NREC   LENGTH (MB)   RECORD NAMES
              1      18       30.32       500      610      700      900      950      970     1000      129      960     1100   
                                          VAR    BASINP    GEOM    SYMINP    ZMAT    AOBASIS   BASIS     P2S    ABASIS      S 
                                         1400     1410     1200     1210     1080     1600     1650     1700   
                                           T        V       H0       H01     AOSYM     SMH    MOLCAS    OPER   

              2       5        4.35       700     1000      520     2200     2201   
                                         GEOM     BASIS   MCVARS     UHF    USCEXX    

              4       5       15.37      4000     2900     3000     3100     3200   
                                         JMAT   

 PROGRAMS   *        TOTAL      ACFD    DF-UHF       INT
 CPU TIMES  *       155.62    147.22      7.72      0.55
 REAL TIME  *        33.03 SEC
 DISK USED  *        62.00 MB
 **********************************************************************************************************************************

 ACFD/aug-cc-pWCVQZ energy=   -114.165429279152

            ACFD          DF-UHF
   -114.16542928   -114.10217467
 **********************************************************************************************************************************
 Molpro calculation terminated
